lattice/hcp/Mg/defect/vacancy/initial/Mg_vacancy.lmp (written by ASE) 

3960 	 atoms 
1  atom types
0.0      32.100000000000001  xlo xhi
0.0      55.598830922960957  ylo yhi
0.0                 52.4193  zlo zhi


Atoms 

     1   1                       0                       0                       0
     2   1                   1.605      2.7799415461480477                       0
     3   1                   1.605     0.92664718204934948                2.620965
     4   1                       0      3.7065887281973975                2.620965
     5   1                    3.21                       0                       0
     6   1      4.8149999999999995      2.7799415461480477                       0
     7   1      4.8149999999999995     0.92664718204934948                2.620965
     8   1                    3.21      3.7065887281973975                2.620965
     9   1      6.4199999999999999                       0                       0
    10   1      8.0250000000000004      2.7799415461480477                       0
    11   1      8.0250000000000004     0.92664718204934948                2.620965
    12   1      6.4199999999999999      3.7065887281973975                2.620965
    13   1       9.629999999999999                       0                       0
    14   1      11.234999999999999      2.7799415461480477                       0
    15   1      11.234999999999999     0.92664718204934948                2.620965
    16   1       9.629999999999999      3.7065887281973975                2.620965
    17   1                   12.84                       0                       0
    18   1                  14.445      2.7799415461480477                       0
    19   1                  14.445     0.92664718204934948                2.620965
    20   1                   12.84      3.7065887281973975                2.620965
    21   1      16.050000000000001                       0                       0
    22   1      17.655000000000001      2.7799415461480477                       0
    23   1      17.655000000000001     0.92664718204934948                2.620965
    24   1      16.050000000000001      3.7065887281973975                2.620965
    25   1      19.259999999999998                       0                       0
    26   1      20.864999999999998      2.7799415461480477                       0
    27   1      20.864999999999998     0.92664718204934948                2.620965
    28   1      19.259999999999998      3.7065887281973975                2.620965
    29   1      22.469999999999999                       0                       0
    30   1      24.074999999999999      2.7799415461480477                       0
    31   1      24.074999999999999     0.92664718204934948                2.620965
    32   1      22.469999999999999      3.7065887281973975                2.620965
    33   1                   25.68                       0                       0
    34   1                  27.285      2.7799415461480477                       0
    35   1                  27.285     0.92664718204934948                2.620965
    36   1                   25.68      3.7065887281973975                2.620965
    37   1      28.890000000000001                       0                       0
    38   1      30.495000000000001      2.7799415461480477                       0
    39   1      30.495000000000001     0.92664718204934948                2.620965
    40   1      28.890000000000001      3.7065887281973975                2.620965
    41   1                       0      5.5598830922960953                       0
    42   1                   1.605      8.3398246384441421                       0
    43   1                   1.605      6.4865302743454452                2.620965
    44   1                       0      9.2664718204934928                2.620965
    45   1                    3.21      5.5598830922960953                       0
    46   1      4.8149999999999995      8.3398246384441421                       0
    47   1      4.8149999999999995      6.4865302743454452                2.620965
    48   1                    3.21      9.2664718204934928                2.620965
    49   1      6.4199999999999999      5.5598830922960953                       0
    50   1      8.0250000000000004      8.3398246384441421                       0
    51   1      6.4199999999999999      9.2664718204934928                2.620965
    52   1       9.629999999999999      5.5598830922960953                       0
    53   1      11.234999999999999      8.3398246384441421                       0
    54   1      11.234999999999999      6.4865302743454452                2.620965
    55   1       9.629999999999999      9.2664718204934928                2.620965
    56   1                   12.84      5.5598830922960953                       0
    57   1                  14.445      8.3398246384441421                       0
    58   1                  14.445      6.4865302743454452                2.620965
    59   1                   12.84      9.2664718204934928                2.620965
    60   1      16.050000000000001      5.5598830922960953                       0
    61   1      17.655000000000001      8.3398246384441421                       0
    62   1      17.655000000000001      6.4865302743454452                2.620965
    63   1      16.050000000000001      9.2664718204934928                2.620965
    64   1      19.259999999999998      5.5598830922960953                       0
    65   1      20.864999999999998      8.3398246384441421                       0
    66   1      20.864999999999998      6.4865302743454452                2.620965
    67   1      19.259999999999998      9.2664718204934928                2.620965
    68   1      22.469999999999999      5.5598830922960953                       0
    69   1      24.074999999999999      8.3398246384441421                       0
    70   1      24.074999999999999      6.4865302743454452                2.620965
    71   1      22.469999999999999      9.2664718204934928                2.620965
    72   1                   25.68      5.5598830922960953                       0
    73   1                  27.285      8.3398246384441421                       0
    74   1                  27.285      6.4865302743454452                2.620965
    75   1                   25.68      9.2664718204934928                2.620965
    76   1      28.890000000000001      5.5598830922960953                       0
    77   1      30.495000000000001      8.3398246384441421                       0
    78   1      30.495000000000001      6.4865302743454452                2.620965
    79   1      28.890000000000001      9.2664718204934928                2.620965
    80   1                       0      11.119766184592191                       0
    81   1                   1.605      13.899707730740239                       0
    82   1                   1.605       12.04641336664154                2.620965
    83   1                       0      14.826354912789588                2.620965
    84   1                    3.21      11.119766184592191                       0
    85   1      4.8149999999999995      13.899707730740239                       0
    86   1      4.8149999999999995       12.04641336664154                2.620965
    87   1                    3.21      14.826354912789588                2.620965
    88   1      6.4199999999999999      11.119766184592191                       0
    89   1      8.0250000000000004      13.899707730740239                       0
    90   1      8.0250000000000004       12.04641336664154                2.620965
    91   1      6.4199999999999999      14.826354912789588                2.620965
    92   1       9.629999999999999      11.119766184592191                       0
    93   1      11.234999999999999      13.899707730740239                       0
    94   1      11.234999999999999       12.04641336664154                2.620965
    95   1       9.629999999999999      14.826354912789588                2.620965
    96   1                   12.84      11.119766184592191                       0
    97   1                  14.445      13.899707730740239                       0
    98   1                  14.445       12.04641336664154                2.620965
    99   1                   12.84      14.826354912789588                2.620965
   100   1      16.050000000000001      11.119766184592191                       0
   101   1      17.655000000000001      13.899707730740239                       0
   102   1      17.655000000000001       12.04641336664154                2.620965
   103   1      16.050000000000001      14.826354912789588                2.620965
   104   1      19.259999999999998      11.119766184592191                       0
   105   1      20.864999999999998      13.899707730740239                       0
   106   1      20.864999999999998       12.04641336664154                2.620965
   107   1      19.259999999999998      14.826354912789588                2.620965
   108   1      22.469999999999999      11.119766184592191                       0
   109   1      24.074999999999999      13.899707730740239                       0
   110   1      24.074999999999999       12.04641336664154                2.620965
   111   1      22.469999999999999      14.826354912789588                2.620965
   112   1                   25.68      11.119766184592191                       0
   113   1                  27.285      13.899707730740239                       0
   114   1                  27.285       12.04641336664154                2.620965
   115   1                   25.68      14.826354912789588                2.620965
   116   1      28.890000000000001      11.119766184592191                       0
   117   1      30.495000000000001      13.899707730740239                       0
   118   1      30.495000000000001       12.04641336664154                2.620965
   119   1      28.890000000000001      14.826354912789588                2.620965
   120   1                       0      16.679649276888284                       0
   121   1                   1.605      17.606296458937635                2.620965
   122   1                       0       20.38623800508568                2.620965
   123   1                    3.21      16.679649276888284                       0
   124   1      4.8149999999999995      19.459590823036333                       0
   125   1      4.8149999999999995      17.606296458937635                2.620965
   126   1                    3.21       20.38623800508568                2.620965
   127   1      6.4199999999999999      16.679649276888284                       0
   128   1      8.0250000000000004      19.459590823036333                       0
   129   1      8.0250000000000004      17.606296458937635                2.620965
   130   1      6.4199999999999999       20.38623800508568                2.620965
   131   1       9.629999999999999      16.679649276888284                       0
   132   1      11.234999999999999      19.459590823036333                       0
   133   1      11.234999999999999      17.606296458937635                2.620965
   134   1       9.629999999999999       20.38623800508568                2.620965
   135   1                   12.84      16.679649276888284                       0
   136   1                  14.445      19.459590823036333                       0
   137   1                  14.445      17.606296458937635                2.620965
   138   1                   12.84       20.38623800508568                2.620965
   139   1      16.050000000000001      16.679649276888284                       0
   140   1      17.655000000000001      19.459590823036333                       0
   141   1      17.655000000000001      17.606296458937635                2.620965
   142   1      16.050000000000001       20.38623800508568                2.620965
   143   1      19.259999999999998      16.679649276888284                       0
   144   1      20.864999999999998      19.459590823036333                       0
   145   1      20.864999999999998      17.606296458937635                2.620965
   146   1      19.259999999999998       20.38623800508568                2.620965
   147   1      22.469999999999999      16.679649276888284                       0
   148   1      24.074999999999999      19.459590823036333                       0
   149   1      24.074999999999999      17.606296458937635                2.620965
   150   1      22.469999999999999       20.38623800508568                2.620965
   151   1                   25.68      16.679649276888284                       0
   152   1                  27.285      19.459590823036333                       0
   153   1                  27.285      17.606296458937635                2.620965
   154   1                   25.68       20.38623800508568                2.620965
   155   1      28.890000000000001      16.679649276888284                       0
   156   1      30.495000000000001      19.459590823036333                       0
   157   1      30.495000000000001      17.606296458937635                2.620965
   158   1      28.890000000000001       20.38623800508568                2.620965
   159   1                       0      22.239532369184381                       0
   160   1                   1.605       25.01947391533243                       0
   161   1                   1.605      23.166179551233732                2.620965
   162   1                       0      25.946121097381777                2.620965
   163   1                    3.21      22.239532369184381                       0
   164   1      4.8149999999999995       25.01947391533243                       0
   165   1      4.8149999999999995      23.166179551233732                2.620965
   166   1                    3.21      25.946121097381777                2.620965
   167   1      6.4199999999999999      22.239532369184381                       0
   168   1      8.0250000000000004       25.01947391533243                       0
   169   1      8.0250000000000004      23.166179551233732                2.620965
   170   1      6.4199999999999999      25.946121097381777                2.620965
   171   1       9.629999999999999      22.239532369184381                       0
   172   1      11.234999999999999       25.01947391533243                       0
   173   1      11.234999999999999      23.166179551233732                2.620965
   174   1       9.629999999999999      25.946121097381777                2.620965
   175   1                   12.84      22.239532369184381                       0
   176   1                  14.445       25.01947391533243                       0
   177   1                   12.84      25.946121097381777                2.620965
   178   1      16.050000000000001      22.239532369184381                       0
   179   1      17.655000000000001       25.01947391533243                       0
   180   1      17.655000000000001      23.166179551233732                2.620965
   181   1      16.050000000000001      25.946121097381777                2.620965
   182   1      19.259999999999998      22.239532369184381                       0
   183   1      20.864999999999998       25.01947391533243                       0
   184   1      20.864999999999998      23.166179551233732                2.620965
   185   1      19.259999999999998      25.946121097381777                2.620965
   186   1      22.469999999999999      22.239532369184381                       0
   187   1      24.074999999999999       25.01947391533243                       0
   188   1      24.074999999999999      23.166179551233732                2.620965
   189   1      22.469999999999999      25.946121097381777                2.620965
   190   1                   25.68      22.239532369184381                       0
   191   1                  27.285       25.01947391533243                       0
   192   1                  27.285      23.166179551233732                2.620965
   193   1                   25.68      25.946121097381777                2.620965
   194   1      28.890000000000001      22.239532369184381                       0
   195   1      30.495000000000001       25.01947391533243                       0
   196   1      30.495000000000001      23.166179551233732                2.620965
   197   1      28.890000000000001      25.946121097381777                2.620965
   198   1                       0      27.799415461480478                       0
   199   1                   1.605      30.579357007628527                       0
   200   1                   1.605      28.726062643529829                2.620965
   201   1                       0      31.506004189677874                2.620965
   202   1                    3.21      27.799415461480478                       0
   203   1      4.8149999999999995      30.579357007628527                       0
   204   1      4.8149999999999995      28.726062643529829                2.620965
   205   1                    3.21      31.506004189677874                2.620965
   206   1      6.4199999999999999      27.799415461480478                       0
   207   1      8.0250000000000004      30.579357007628527                       0
   208   1      8.0250000000000004      28.726062643529829                2.620965
   209   1      6.4199999999999999      31.506004189677874                2.620965
   210   1       9.629999999999999      27.799415461480478                       0
   211   1      11.234999999999999      30.579357007628527                       0
   212   1      11.234999999999999      28.726062643529829                2.620965
   213   1       9.629999999999999      31.506004189677874                2.620965
   214   1                   12.84      27.799415461480478                       0
   215   1                  14.445      30.579357007628527                       0
   216   1                  14.445      28.726062643529829                2.620965
   217   1                   12.84      31.506004189677874                2.620965
   218   1      16.050000000000001      27.799415461480478                       0
   219   1      17.655000000000001      30.579357007628527                       0
   220   1      17.655000000000001      28.726062643529829                2.620965
   221   1      16.050000000000001      31.506004189677874                2.620965
   222   1      19.259999999999998      27.799415461480478                       0
   223   1      20.864999999999998      30.579357007628527                       0
   224   1      20.864999999999998      28.726062643529829                2.620965
   225   1      19.259999999999998      31.506004189677874                2.620965
   226   1      22.469999999999999      27.799415461480478                       0
   227   1      24.074999999999999      30.579357007628527                       0
   228   1      24.074999999999999      28.726062643529829                2.620965
   229   1      22.469999999999999      31.506004189677874                2.620965
   230   1                   25.68      27.799415461480478                       0
   231   1                  27.285      30.579357007628527                       0
   232   1                  27.285      28.726062643529829                2.620965
   233   1                   25.68      31.506004189677874                2.620965
   234   1      28.890000000000001      27.799415461480478                       0
   235   1      30.495000000000001      30.579357007628527                       0
   236   1      30.495000000000001      28.726062643529829                2.620965
   237   1      28.890000000000001      31.506004189677874                2.620965
   238   1                       0      33.359298553776568                       0
   239   1                   1.605      36.139240099924614                       0
   240   1                   1.605      34.285945735825919                2.620965
   241   1                       0      37.065887281973964                2.620965
   242   1                    3.21      33.359298553776568                       0
   243   1      4.8149999999999995      36.139240099924614                       0
   244   1      4.8149999999999995      34.285945735825919                2.620965
   245   1                    3.21      37.065887281973964                2.620965
   246   1      6.4199999999999999      33.359298553776568                       0
   247   1      8.0250000000000004      36.139240099924614                       0
   248   1      8.0250000000000004      34.285945735825919                2.620965
   249   1      6.4199999999999999      37.065887281973964                2.620965
   250   1       9.629999999999999      33.359298553776568                       0
   251   1      11.234999999999999      36.139240099924614                       0
   252   1      11.234999999999999      34.285945735825919                2.620965
   253   1       9.629999999999999      37.065887281973964                2.620965
   254   1                   12.84      33.359298553776568                       0
   255   1                  14.445      36.139240099924614                       0
   256   1                  14.445      34.285945735825919                2.620965
   257   1                   12.84      37.065887281973964                2.620965
   258   1      16.050000000000001      33.359298553776568                       0
   259   1      17.655000000000001      36.139240099924614                       0
   260   1      17.655000000000001      34.285945735825919                2.620965
   261   1      16.050000000000001      37.065887281973964                2.620965
   262   1      19.259999999999998      33.359298553776568                       0
   263   1      20.864999999999998      36.139240099924614                       0
   264   1      20.864999999999998      34.285945735825919                2.620965
   265   1      19.259999999999998      37.065887281973964                2.620965
   266   1      22.469999999999999      33.359298553776568                       0
   267   1      24.074999999999999      36.139240099924614                       0
   268   1      24.074999999999999      34.285945735825919                2.620965
   269   1      22.469999999999999      37.065887281973964                2.620965
   270   1                   25.68      33.359298553776568                       0
   271   1                  27.285      36.139240099924614                       0
   272   1                  27.285      34.285945735825919                2.620965
   273   1                   25.68      37.065887281973964                2.620965
   274   1      28.890000000000001      33.359298553776568                       0
   275   1      30.495000000000001      36.139240099924614                       0
   276   1      30.495000000000001      34.285945735825919                2.620965
   277   1      28.890000000000001      37.065887281973964                2.620965
   278   1                       0      38.919181646072666                       0
   279   1                   1.605      41.699123192220711                       0
   280   1                   1.605      39.845828828122016                2.620965
   281   1                       0      42.625770374270061                2.620965
   282   1                    3.21      38.919181646072666                       0
   283   1      4.8149999999999995      41.699123192220711                       0
   284   1      4.8149999999999995      39.845828828122016                2.620965
   285   1                    3.21      42.625770374270061                2.620965
   286   1      6.4199999999999999      38.919181646072666                       0
   287   1      8.0250000000000004      41.699123192220711                       0
   288   1      8.0250000000000004      39.845828828122016                2.620965
   289   1      6.4199999999999999      42.625770374270061                2.620965
   290   1       9.629999999999999      38.919181646072666                       0
   291   1      11.234999999999999      41.699123192220711                       0
   292   1      11.234999999999999      39.845828828122016                2.620965
   293   1       9.629999999999999      42.625770374270061                2.620965
   294   1                   12.84      38.919181646072666                       0
   295   1                  14.445      41.699123192220711                       0
   296   1                  14.445      39.845828828122016                2.620965
   297   1                   12.84      42.625770374270061                2.620965
   298   1      16.050000000000001      38.919181646072666                       0
   299   1      17.655000000000001      41.699123192220711                       0
   300   1      17.655000000000001      39.845828828122016                2.620965
   301   1      16.050000000000001      42.625770374270061                2.620965
   302   1      19.259999999999998      38.919181646072666                       0
   303   1      20.864999999999998      41.699123192220711                       0
   304   1      20.864999999999998      39.845828828122016                2.620965
   305   1      19.259999999999998      42.625770374270061                2.620965
   306   1      22.469999999999999      38.919181646072666                       0
   307   1      24.074999999999999      41.699123192220711                       0
   308   1      24.074999999999999      39.845828828122016                2.620965
   309   1      22.469999999999999      42.625770374270061                2.620965
   310   1                   25.68      38.919181646072666                       0
   311   1                  27.285      41.699123192220711                       0
   312   1                  27.285      39.845828828122016                2.620965
   313   1                   25.68      42.625770374270061                2.620965
   314   1      28.890000000000001      38.919181646072666                       0
   315   1      30.495000000000001      41.699123192220711                       0
   316   1      30.495000000000001      39.845828828122016                2.620965
   317   1      28.890000000000001      42.625770374270061                2.620965
   318   1                       0      44.479064738368763                       0
   319   1                   1.605      47.259006284516808                       0
   320   1                   1.605      45.405711920418113                2.620965
   321   1                       0      48.185653466566158                2.620965
   322   1                    3.21      44.479064738368763                       0
   323   1      4.8149999999999995      47.259006284516808                       0
   324   1      4.8149999999999995      45.405711920418113                2.620965
   325   1                    3.21      48.185653466566158                2.620965
   326   1      6.4199999999999999      44.479064738368763                       0
   327   1      8.0250000000000004      47.259006284516808                       0
   328   1      8.0250000000000004      45.405711920418113                2.620965
   329   1      6.4199999999999999      48.185653466566158                2.620965
   330   1       9.629999999999999      44.479064738368763                       0
   331   1      11.234999999999999      47.259006284516808                       0
   332   1      11.234999999999999      45.405711920418113                2.620965
   333   1       9.629999999999999      48.185653466566158                2.620965
   334   1                   12.84      44.479064738368763                       0
   335   1                  14.445      47.259006284516808                       0
   336   1                  14.445      45.405711920418113                2.620965
   337   1                   12.84      48.185653466566158                2.620965
   338   1      16.050000000000001      44.479064738368763                       0
   339   1      17.655000000000001      47.259006284516808                       0
   340   1      17.655000000000001      45.405711920418113                2.620965
   341   1      16.050000000000001      48.185653466566158                2.620965
   342   1      19.259999999999998      44.479064738368763                       0
   343   1      20.864999999999998      47.259006284516808                       0
   344   1      20.864999999999998      45.405711920418113                2.620965
   345   1      19.259999999999998      48.185653466566158                2.620965
   346   1      22.469999999999999      44.479064738368763                       0
   347   1      24.074999999999999      47.259006284516808                       0
   348   1      24.074999999999999      45.405711920418113                2.620965
   349   1      22.469999999999999      48.185653466566158                2.620965
   350   1                   25.68      44.479064738368763                       0
   351   1                  27.285      47.259006284516808                       0
   352   1                   25.68      48.185653466566158                2.620965
   353   1      28.890000000000001      44.479064738368763                       0
   354   1      30.495000000000001      47.259006284516808                       0
   355   1      30.495000000000001      45.405711920418113                2.620965
   356   1      28.890000000000001      48.185653466566158                2.620965
   357   1                       0       50.03894783066486                       0
   358   1                   1.605      52.818889376812905                       0