lattice/bcc/Fe/defect/interstitial/initial/Fe_interstitial.lmp (written by ASE) 

2020 	 atoms 
2  atom types
0.0      28.700000000000003  xlo xhi
0.0      28.700000000000003  ylo yhi
0.0      28.700000000000003  zlo zhi


Atoms 

     1   2                       0                       0                       0
     2   2      1.4350000000000001      1.4350000000000001      1.4350000000000001
     3   2      2.8700000000000001                       0                       0
     4   2      4.3049999999999997      1.4350000000000001      1.4350000000000001
     5   2      5.7400000000000002                       0                       0
     6   2      7.1750000000000007      1.4350000000000001      1.4350000000000001
     7   2      8.6099999999999994                       0                       0
     8   2                  10.045      1.4350000000000001      1.4350000000000001
     9   2                   11.48                       0                       0
    10   2      12.915000000000001      1.4350000000000001      1.4350000000000001
    11   2      14.350000000000001                       0                       0
    12   2      15.785000000000002      1.4350000000000001      1.4350000000000001
    13   2      17.219999999999999                       0                       0
    14   2      18.654999999999998      1.4350000000000001      1.4350000000000001
    15   2                   20.09                       0                       0
    16   2      21.524999999999999      1.4350000000000001      1.4350000000000001
    17   2      22.960000000000001                       0                       0
    18   2                  24.395      1.4350000000000001      1.4350000000000001
    19   2      25.830000000000002                       0                       0
    20   2      27.265000000000001      1.4350000000000001      1.4350000000000001
    21   2                       0      2.8700000000000001                       0
    22   2      1.4350000000000001      4.3049999999999997      1.4350000000000001
    23   2      2.8700000000000001      2.8700000000000001                       0
    24   2      4.3049999999999997      4.3049999999999997      1.4350000000000001
    25   2      5.7400000000000002      2.8700000000000001                       0
    26   2      7.1750000000000007      4.3049999999999997      1.4350000000000001
    27   2      8.6099999999999994      2.8700000000000001                       0
    28   2                  10.045      4.3049999999999997      1.4350000000000001
    29   2                   11.48      2.8700000000000001                       0
    30   2      12.915000000000001      4.3049999999999997      1.4350000000000001
    31   2      14.350000000000001      2.8700000000000001                       0
    32   2      15.785000000000002      4.3049999999999997      1.4350000000000001
    33   2      17.219999999999999      2.8700000000000001                       0
    34   2      18.654999999999998      4.3049999999999997      1.4350000000000001
    35   2                   20.09      2.8700000000000001                       0
    36   2      21.524999999999999      4.3049999999999997      1.4350000000000001
    37   2      22.960000000000001      2.8700000000000001                       0
    38   2                  24.395      4.3049999999999997      1.4350000000000001
    39   2      25.830000000000002      2.8700000000000001                       0
    40   2      27.265000000000001      4.3049999999999997      1.4350000000000001
    41   2                       0      5.7400000000000002                       0
    42   2      1.4350000000000001      7.1750000000000007      1.4350000000000001
    43   2      2.8700000000000001      5.7400000000000002                       0
    44   2      4.3049999999999997      7.1750000000000007      1.4350000000000001
    45   2      5.7400000000000002      5.7400000000000002                       0
    46   2      7.1750000000000007      7.1750000000000007      1.4350000000000001
    47   2      8.6099999999999994      5.7400000000000002                       0
    48   2                  10.045      7.1750000000000007      1.4350000000000001
    49   2                   11.48      5.7400000000000002                       0
    50   2      12.915000000000001      7.1750000000000007      1.4350000000000001
    51   2      14.350000000000001      5.7400000000000002                       0
    52   2      15.785000000000002      7.1750000000000007      1.4350000000000001
    53   2      17.219999999999999      5.7400000000000002                       0
    54   2      18.654999999999998      7.1750000000000007      1.4350000000000001
    55   2                   20.09      5.7400000000000002                       0
    56   2      21.524999999999999      7.1750000000000007      1.4350000000000001
    57   2      22.960000000000001      5.7400000000000002                       0
    58   2                  24.395      7.1750000000000007      1.4350000000000001
    59   2      25.830000000000002      5.7400000000000002                       0
    60   2      27.265000000000001      7.1750000000000007      1.4350000000000001
    61   2                       0      8.6099999999999994                       0
    62   2      1.4350000000000001                  10.045      1.4350000000000001
    63   2      2.8700000000000001      8.6099999999999994                       0
    64   2      4.3049999999999997                  10.045      1.4350000000000001
    65   2      5.7400000000000002      8.6099999999999994                       0
    66   2      7.1750000000000007                  10.045      1.4350000000000001
    67   2      8.6099999999999994      8.6099999999999994                       0
    68   2                  10.045                  10.045      1.4350000000000001
    69   2                   11.48      8.6099999999999994                       0
    70   2      12.915000000000001                  10.045      1.4350000000000001
    71   2      14.350000000000001      8.6099999999999994                       0
    72   2      15.785000000000002                  10.045      1.4350000000000001
    73   2      17.219999999999999      8.6099999999999994                       0
    74   2      18.654999999999998                  10.045      1.4350000000000001
    75   2                   20.09      8.6099999999999994                       0
    76   2      21.524999999999999                  10.045      1.4350000000000001
    77   2      22.960000000000001      8.6099999999999994                       0
    78   2                  24.395                  10.045      1.4350000000000001
    79   2      25.830000000000002      8.6099999999999994                       0
    80   2      27.265000000000001                  10.045      1.4350000000000001
    81   2                       0                   11.48                       0
    82   2      1.4350000000000001      12.915000000000001      1.4350000000000001
    83   2      2.8700000000000001                   11.48                       0
    84   2      4.3049999999999997      12.915000000000001      1.4350000000000001
    85   2      5.7400000000000002                   11.48                       0
    86   2      7.1750000000000007      12.915000000000001      1.4350000000000001
    87   2      8.6099999999999994                   11.48                       0
    88   2                  10.045      12.915000000000001      1.4350000000000001
    89   2                   11.48                   11.48                       0
    90   2      12.915000000000001      12.915000000000001      1.4350000000000001
    91   2      14.350000000000001                   11.48                       0
    92   2      15.785000000000002      12.915000000000001      1.4350000000000001
    93   2      17.219999999999999                   11.48                       0
    94   2      18.654999999999998      12.915000000000001      1.4350000000000001
    95   2                   20.09                   11.48                       0
    96   2      21.524999999999999      12.915000000000001      1.4350000000000001
    97   2      22.960000000000001                   11.48                       0
    98   2                  24.395      12.915000000000001      1.4350000000000001
    99   2      25.830000000000002                   11.48                       0
   100   2      27.265000000000001      12.915000000000001      1.4350000000000001
   101   2                       0      14.350000000000001                       0
   102   2      1.4350000000000001      15.785000000000002      1.4350000000000001
   103   2      2.8700000000000001      14.350000000000001                       0
   104   2      4.3049999999999997      15.785000000000002      1.4350000000000001
   105   2      5.7400000000000002      14.350000000000001                       0
   106   2      7.1750000000000007      15.785000000000002      1.4350000000000001
   107   2      8.6099999999999994      14.350000000000001                       0
   108   2                  10.045      15.785000000000002      1.4350000000000001
   109   2                   11.48      14.350000000000001                       0
   110   2      12.915000000000001      15.785000000000002      1.4350000000000001
   111   2      14.350000000000001      14.350000000000001                       0
   112   2      15.785000000000002      15.785000000000002      1.4350000000000001
   113   2      17.219999999999999      14.350000000000001                       0
   114   2      18.654999999999998      15.785000000000002      1.4350000000000001
   115   2                   20.09      14.350000000000001                       0
   116   2      21.524999999999999      15.785000000000002      1.4350000000000001
   117   2      22.960000000000001      14.350000000000001                       0
   118   2                  24.395      15.785000000000002      1.4350000000000001
   119   2      25.830000000000002      14.350000000000001                       0
   120   2      27.265000000000001      15.785000000000002      1.4350000000000001
   121   2                       0      17.219999999999999                       0
   122   2      1.4350000000000001      18.654999999999998      1.4350000000000001
   123   2      2.8700000000000001      17.219999999999999                       0
   124   2      4.3049999999999997      18.654999999999998      1.4350000000000001
   125   2      5.7400000000000002      17.219999999999999                       0
   126   2      7.1750000000000007      18.654999999999998      1.4350000000000001
   127   2      8.6099999999999994      17.219999999999999                       0
   128   2                  10.045      18.654999999999998      1.4350000000000001
   129   2                   11.48      17.219999999999999                       0
   130   2      12.915000000000001      18.654999999999998      1.4350000000000001
   131   2      14.350000000000001      17.219999999999999                       0
   132   2      15.785000000000002      18.654999999999998      1.4350000000000001
   133   2      17.219999999999999      17.219999999999999                       0
   134   2      18.654999999999998      18.654999999999998      1.4350000000000001
   135   2                   20.09      17.219999999999999                       0
   136   2      21.524999999999999      18.654999999999998      1.4350000000000001
   137   2      22.960000000000001      17.219999999999999                       0
   138   2                  24.395      18.654999999999998      1.4350000000000001
   139   2      25.830000000000002      17.219999999999999                       0
   140   2      27.265000000000001      18.654999999999998      1.4350000000000001
   141   2                       0                   20.09                       0
   142   2      1.4350000000000001      21.524999999999999      1.4350000000000001
   143   2      2.8700000000000001                   20.09                       0
   144   2      4.3049999999999997      21.524999999999999      1.4350000000000001
   145   2      5.7400000000000002                   20.09                       0
   146   2      7.1750000000000007      21.524999999999999      1.4350000000000001
   147   2      8.6099999999999994                   20.09                       0
   148   2                  10.045      21.524999999999999      1.4350000000000001
   149   2                   11.48                   20.09                       0
   150   2      12.915000000000001      21.524999999999999      1.4350000000000001
   151   2      14.350000000000001                   20.09                       0
   152   2      15.785000000000002      21.524999999999999      1.4350000000000001
   153   2      17.219999999999999                   20.09                       0
   154   2      18.654999999999998      21.524999999999999      1.4350000000000001
   155   2                   20.09                   20.09                       0
   156   2      21.524999999999999      21.524999999999999      1.4350000000000001
   157   2      22.960000000000001                   20.09                       0
   158   2                  24.395      21.524999999999999      1.4350000000000001
   159   2      25.830000000000002                   20.09                       0
   160   2      27.265000000000001      21.524999999999999      1.4350000000000001
   161   2                       0      22.960000000000001                       0
   162   2      1.4350000000000001                  24.395      1.4350000000000001
   163   2      2.8700000000000001      22.960000000000001                       0
   164   2      4.3049999999999997                  24.395      1.4350000000000001
   165   2      5.7400000000000002      22.960000000000001                       0
   166   2      7.1750000000000007                  24.395      1.4350000000000001
   167   2      8.6099999999999994      22.960000000000001                       0
   168   2                  10.045                  24.395      1.4350000000000001
   169   2                   11.48      22.960000000000001                       0
   170   2      12.915000000000001                  24.395      1.4350000000000001
   171   2      14.350000000000001      22.960000000000001                       0
   172   2      15.785000000000002                  24.395      1.4350000000000001
   173   2      17.219999999999999      22.960000000000001                       0
   174   2      18.654999999999998                  24.395      1.4350000000000001
   175   2                   20.09      22.960000000000001                       0
   176   2      21.524999999999999                  24.395      1.4350000000000001
   177   2      22.960000000000001      22.960000000000001                       0
   178   2                  24.395                  24.395      1.4350000000000001
   179   2      25.830000000000002      22.960000000000001                       0
   180   2      27.265000000000001                  24.395      1.4350000000000001
   181   2                       0      25.830000000000002                       0
   182   2      1.4350000000000001      27.265000000000001      1.4350000000000001
   183   2      2.8700000000000001      25.830000000000002                       0
   184   2      4.3049999999999997      27.265000000000001      1.4350000000000001
   185   2      5.7400000000000002      25.830000000000002                       0
   186   2      7.1750000000000007      27.265000000000001      1.4350000000000001
   187   2      8.6099999999999994      25.830000000000002                       0
   188   2                  10.045      27.265000000000001      1.4350000000000001
   189   2                   11.48      25.830000000000002                       0
   190   2      12.915000000000001      27.265000000000001      1.4350000000000001
   191   2      14.350000000000001      25.830000000000002                       0
   192   2      15.785000000000002      27.265000000000001      1.4350000000000001
   193   2      17.219999999999999      25.830000000000002                       0
   194   2      18.654999999999998      27.265000000000001      1.4350000000000001
   195   2                   20.09      25.830000000000002                       0
   196   2      21.524999999999999      27.265000000000001      1.4350000000000001
   197   2      22.960000000000001      25.830000000000002                       0
   198   2                  24.395      27.265000000000001      1.4350000000000001
   199   2      25.830000000000002      25.830000000000002                       0
   200   2      27.265000000000001      27.265000000000001      1.4350000000000001
   201   2                       0                       0      2.8700000000000001
   202   2      1.4350000000000001      1.4350000000000001      4.3049999999999997
   203   2      2.8700000000000001                       0      2.8700000000000001
   204   2      4.3049999999999997      1.4350000000000001      4.3049999999999997
   205   2      5.7400000000000002                       0      2.8700000000000001
   206   2      7.1750000000000007      1.4350000000000001      4.3049999999999997
   207   2      8.6099999999999994                       0      2.8700000000000001
   208   2                  10.045      1.4350000000000001      4.3049999999999997
   209   2                   11.48                       0      2.8700000000000001
   210   2      12.915000000000001      1.4350000000000001      4.3049999999999997
   211   2      14.350000000000001                       0      2.8700000000000001
   212   2      15.785000000000002      1.4350000000000001      4.3049999999999997
   213   2      17.219999999999999                       0      2.8700000000000001
   214   2      18.654999999999998      1.4350000000000001      4.3049999999999997
   215   2                   20.09                       0      2.8700000000000001
   216   2      21.524999999999999      1.4350000000000001      4.3049999999999997
   217   2      22.960000000000001                       0      2.8700000000000001
   218   2                  24.395      1.4350000000000001      4.3049999999999997
   219   2      25.830000000000002                       0      2.8700000000000001
   220   2      27.265000000000001      1.4350000000000001      4.3049999999999997
   221   2                       0      2.8700000000000001      2.8700000000000001
   222   2      1.4350000000000001      4.3049999999999997      4.3049999999999997
   223   2      2.8700000000000001      2.8700000000000001      2.8700000000000001
   224   2      4.3049999999999997      4.3049999999999997      4.3049999999999997
   225   2      5.7400000000000002      2.8700000000000001      2.8700000000000001
   226   2      7.1750000000000007      4.3049999999999997      4.3049999999999997
   227   2      8.6099999999999994      2.8700000000000001      2.8700000000000001
   228   2                  10.045      4.3049999999999997      4.3049999999999997
   229   2                   11.48      2.8700000000000001      2.8700000000000001
   230   2      12.915000000000001      4.3049999999999997      4.3049999999999997
   231   2      14.350000000000001      2.8700000000000001      2.8700000000000001
   232   2      15.785000000000002      4.3049999999999997      4.3049999999999997
   233   2      17.219999999999999      2.8700000000000001      2.8700000000000001
   234   2      18.654999999999998      4.3049999999999997      4.3049999999999997
   235   2                   20.09      2.8700000000000001      2.8700000000000001
   236   2      21.524999999999999      4.3049999999999997      4.3049999999999997
   237   2      22.960000000000001      2.8700000000000001      2.8700000000000001
   238   2                  24.395      4.3049999999999997      4.3049999999999997
   239   2      25.830000000000002      2.8700000000000001      2.8700000000000001
   240   2      27.265000000000001      4.3049999999999997      4.3049999999999997
   241   2                       0      5.7400000000000002      2.8700000000000001
   242   2      1.4350000000000001      7.1750000000000007      4.3049999999999997
   243   2      2.8700000000000001      5.7400000000000002      2.8700000000000001
   244   2      4.3049999999999997      7.1750000000000007      4.3049999999999997
   245   2      5.7400000000000002      5.7400000000000002      2.8700000000000001
   246   2      7.1750000000000007      7.1750000000000007      4.3049999999999997
   247   2      8.6099999999999994      5.7400000000000002      2.8700000000000001
   248   2                  10.045      7.1750000000000007      4.3049999999999997
   249   2                   11.48      5.7400000000000002      2.8700000000000001
   250   2      12.915000000000001      7.1750000000000007      4.3049999999999997
   251   2      14.350000000000001      5.7400000000000002      2.8700000000000001
   252   2      15.785000000000002      7.1750000000000007      4.3049999999999997
   253   2      17.219999999999999      5.7400000000000002      2.8700000000000001
   254   2      18.654999999999998      7.1750000000000007      4.3049999999999997
   255   2                   20.09      5.7400000000000002      2.8700000000000001
   256   2      21.524999999999999      7.1750000000000007      4.3049999999999997
   257   2      22.960000000000001      5.7400000000000002      2.8700000000000001
   258   2                  24.395      7.1750000000000007      4.3049999999999997
   259   2      25.830000000000002      5.7400000000000002      2.8700000000000001
   260   2      27.265000000000001      7.1750000000000007      4.3049999999999997
   261   2                       0      8.6099999999999994      2.8700000000000001
   262   2      1.4350000000000001                  10.045      4.3049999999999997
   263   2      2.8700000000000001      8.6099999999999994      2.8700000000000001
   264   2      4.3049999999999997                  10.045      4.3049999999999997
   265   2      5.7400000000000002      8.6099999999999994      2.8700000000000001
   266   2      7.1750000000000007                  10.045      4.3049999999999997
   267   2      8.6099999999999994      8.6099999999999994      2.8700000000000001
   268   2                  10.045                  10.045      4.3049999999999997
   269   2                   11.48      8.6099999999999994      2.8700000000000001
   270   2      12.915000000000001                  10.045      4.3049999999999997
   271   2      14.350000000000001      8.6099999999999994      2.8700000000000001
   272   2      15.785000000000002                  10.045      4.3049999999999997
   273   2      17.219999999999999      8.6099999999999994      2.8700000000000001
   274   2      18.654999999999998                  10.045      4.3049999999999997
   275   2                   20.09      8.6099999999999994      2.8700000000000001
   276   2      21.524999999999999                  10.045      4.3049999999999997
   277   2      22.960000000000001      8.6099999999999994      2.8700000000000001
   278   2                  24.395                  10.045      4.3049999999999997
   279   2      25.830000000000002      8.6099999999999994      2.8700000000000001
   280   2      27.265000000000001                  10.045      4.3049999999999997
   281   2                       0                   11.48      2.8700000000000001
   282   2      1.4350000000000001      12.915000000000001      4.3049999999999997
   283   2      2.8700000000000001                   11.48      2.8700000000000001
   284   2      4.3049999999999997      12.915000000000001      4.3049999999999997
   285   2      5.7400000000000002                   11.48      2.8700000000000001
   286   2      7.1750000000000007      12.915000000000001      4.3049999999999997
   287   2      8.6099999999999994                   11.48      2.8700000000000001
   288   2                  10.045      12.915000000000001      4.3049999999999997
   289   2                   11.48                   11.48      2.8700000000000001
   290   2      12.915000000000001      12.915000000000001      4.3049999999999997
   291   2      14.350000000000001                   11.48      2.8700000000000001
   292   2      15.785000000000002      12.915000000000001      4.3049999999999997
   293   2      17.219999999999999                   11.48      2.8700000000000001
   294   2      18.654999999999998      12.915000000000001      4.3049999999999997
   295   2                   20.09                   11.48      2.8700000000000001
   296   2      21.524999999999999      12.915000000000001      4.3049999999999997
   297   2      22.960000000000001                   11.48      2.8700000000000001
   298   2                  24.395      12.915000000000001      4.3049999999999997
   299   2      25.830000000000002                   11.48      2.8700000000000001
   300   2      27.265000000000001      12.915000000000001      4.3049999999999997
   301   2                       0      14.350000000000001      2.8700000000000001
   302   2      1.4350000000000001      15.785000000000002      4.3049999999999997
   303   2      2.8700000000000001      14.350000000000001      2.8700000000000001
   304   2      4.3049999999999997      15.785000000000002      4.3049999999999997
   305   2      5.7400000000000002      14.350000000000001      2.8700000000000001
   306   2      7.1750000000000007      15.785000000000002      4.3049999999999997
   307   2      8.6099999999999994      14.350000000000001      2.8700000000000001
   308   2                  10.045      15.785000000000002      4.3049999999999997
   309   2                   11.48      14.350000000000001      2.8700000000000001
   310   2      12.915000000000001      15.785000000000002      4.3049999999999997
   311   2      14.350000000000001      14.350000000000001      2.8700000000000001
   312   2      15.785000000000002      15.785000000000002      4.3049999999999997
   313   2      17.219999999999999      14.350000000000001      2.8700000000000001
   314   2      18.654999999999998      15.785000000000002      4.3049999999999997
   315   2                   20.09      14.350000000000001      2.8700000000000001
   316   2      21.524999999999999      15.785000000000002      4.3049999999999997
   317   2      22.960000000000001      14.350000000000001      2.8700000000000001
   318   2                  24.395      15.785000000000002      4.3049999999999997
   319   2      25.830000000000002      14.350000000000001      2.8700000000000001
   320   2      27.265000000000001      15.785000000000002      4.3049999999999997
   321   2                       0      17.219999999999999      2.8700000000000001
   322   2      1.4350000000000001      18.654999999999998      4.3049999999999997
   323   2      2.8700000000000001      17.219999999999999      2.8700000000000001
   324   2      4.3049999999999997      18.654999999999998      4.3049999999999997
   325   2      5.7400000000000002      17.219999999999999      2.8700000000000001
   326   2      7.1750000000000007      18.654999999999998      4.3049999999999997
   327   2      8.6099999999999994      17.219999999999999      2.8700000000000001
   328   2                  10.045      18.654999999999998      4.3049999999999997
   329   2                   11.48      17.219999999999999      2.8700000000000001
   330   2      12.915000000000001      18.654999999999998      4.3049999999999997
   331   2      14.350000000000001      17.219999999999999      2.8700000000000001
   332   2      15.785000000000002      18.654999999999998      4.3049999999999997
   333   2      17.219999999999999      17.219999999999999      2.8700000000000001
   334   2      18.654999999999998      18.654999999999998      4.3049999999999997
   335   2                   20.09      17.219999999999999      2.8700000000000001
   336   2      21.524999999999999      18.654999999999998      4.3049999999999997
   337   2      22.960000000000001      17.219999999999999      2.8700000000000001
   338   2                  24.395      18.654999999999998      4.3049999999999997
   339   2      25.830000000000002      17.219999999999999      2.8700000000000001
   340   2      27.265000000000001      18.654999999999998      4.3049999999999997
   341   2                       0                   20.09      2.8700000000000001
   342   2      1.4350000000000001      21.524999999999999      4.3049999999999997
   343   2      2.8700000000000001                   20.09      2.8700000000000001
   344   2      4.3049999999999997      21.524999999999999      4.3049999999999997
   345   2      5.7400000000000002                   20.09      2.8700000000000001
   346   2      7.1750000000000007      21.524999999999999      4.3049999999999997
   347   2      8.6099999999999994                   20.09      2.8700000000000001
   348   2                  10.045      21.524999999999999      4.3049999999999997
   349   2                   11.48                   20.09      2.8700000000000001
   350   2      12.915000000000001      21.524999999999999      4.3049999999999997
   351   2      14.350000000000001                   20.09      2.8700000000000001
   352   2      15.785000000000002      21.524999999999999      4.3049999999999997
   353   2      17.219999999999999                   20.09      2.8700000000000001
   354   2      18.654999999999998      21.524999999999999      4.3049999999999997
   355   2                   20.09                   20.09      2.8700000000000001
   356   2      21.524999999999999      21.524999999999999      4.3049999999999997
   357   2      22.960000000000001                   20.09      2.8700000000000001
   358   2                  24.395      21.524999999999999      4.3049999999999997