lattice/bcc/Fe/no_defect/initial/Fe.lmp (written by ASE) 

2000 	 atoms 
1  atom types
0.0      28.700000000000003  xlo xhi
0.0      28.700000000000003  ylo yhi
0.0      28.700000000000003  zlo zhi


Atoms 

     1   1                       0                       0                       0
     2   1      1.4350000000000001      1.4350000000000001      1.4350000000000001
     3   1      2.8700000000000001                       0                       0
     4   1      4.3049999999999997      1.4350000000000001      1.4350000000000001
     5   1      5.7400000000000002                       0                       0
     6   1      7.1750000000000007      1.4350000000000001      1.4350000000000001
     7   1      8.6099999999999994                       0                       0
     8   1                  10.045      1.4350000000000001      1.4350000000000001
     9   1                   11.48                       0                       0
    10   1      12.915000000000001      1.4350000000000001      1.4350000000000001
    11   1      14.350000000000001                       0                       0
    12   1      15.785000000000002      1.4350000000000001      1.4350000000000001
    13   1      17.219999999999999                       0                       0
    14   1      18.654999999999998      1.4350000000000001      1.4350000000000001
    15   1                   20.09                       0                       0
    16   1      21.524999999999999      1.4350000000000001      1.4350000000000001
    17   1      22.960000000000001                       0                       0
    18   1                  24.395      1.4350000000000001      1.4350000000000001
    19   1      25.830000000000002                       0                       0
    20   1      27.265000000000001      1.4350000000000001      1.4350000000000001
    21   1                       0      2.8700000000000001                       0
    22   1      1.4350000000000001      4.3049999999999997      1.4350000000000001
    23   1      2.8700000000000001      2.8700000000000001                       0
    24   1      4.3049999999999997      4.3049999999999997      1.4350000000000001
    25   1      5.7400000000000002      2.8700000000000001                       0
    26   1      7.1750000000000007      4.3049999999999997      1.4350000000000001
    27   1      8.6099999999999994      2.8700000000000001                       0
    28   1                  10.045      4.3049999999999997      1.4350000000000001
    29   1                   11.48      2.8700000000000001                       0
    30   1      12.915000000000001      4.3049999999999997      1.4350000000000001
    31   1      14.350000000000001      2.8700000000000001                       0
    32   1      15.785000000000002      4.3049999999999997      1.4350000000000001
    33   1      17.219999999999999      2.8700000000000001                       0
    34   1      18.654999999999998      4.3049999999999997      1.4350000000000001
    35   1                   20.09      2.8700000000000001                       0
    36   1      21.524999999999999      4.3049999999999997      1.4350000000000001
    37   1      22.960000000000001      2.8700000000000001                       0
    38   1                  24.395      4.3049999999999997      1.4350000000000001
    39   1      25.830000000000002      2.8700000000000001                       0
    40   1      27.265000000000001      4.3049999999999997      1.4350000000000001
    41   1                       0      5.7400000000000002                       0
    42   1      1.4350000000000001      7.1750000000000007      1.4350000000000001
    43   1      2.8700000000000001      5.7400000000000002                       0
    44   1      4.3049999999999997      7.1750000000000007      1.4350000000000001
    45   1      5.7400000000000002      5.7400000000000002                       0
    46   1      7.1750000000000007      7.1750000000000007      1.4350000000000001
    47   1      8.6099999999999994      5.7400000000000002                       0
    48   1                  10.045      7.1750000000000007      1.4350000000000001
    49   1                   11.48      5.7400000000000002                       0
    50   1      12.915000000000001      7.1750000000000007      1.4350000000000001
    51   1      14.350000000000001      5.7400000000000002                       0
    52   1      15.785000000000002      7.1750000000000007      1.4350000000000001
    53   1      17.219999999999999      5.7400000000000002                       0
    54   1      18.654999999999998      7.1750000000000007      1.4350000000000001
    55   1                   20.09      5.7400000000000002                       0
    56   1      21.524999999999999      7.1750000000000007      1.4350000000000001
    57   1      22.960000000000001      5.7400000000000002                       0
    58   1                  24.395      7.1750000000000007      1.4350000000000001
    59   1      25.830000000000002      5.7400000000000002                       0
    60   1      27.265000000000001      7.1750000000000007      1.4350000000000001
    61   1                       0      8.6099999999999994                       0
    62   1      1.4350000000000001                  10.045      1.4350000000000001
    63   1      2.8700000000000001      8.6099999999999994                       0
    64   1      4.3049999999999997                  10.045      1.4350000000000001
    65   1      5.7400000000000002      8.6099999999999994                       0
    66   1      7.1750000000000007                  10.045      1.4350000000000001
    67   1      8.6099999999999994      8.6099999999999994                       0
    68   1                  10.045                  10.045      1.4350000000000001
    69   1                   11.48      8.6099999999999994                       0
    70   1      12.915000000000001                  10.045      1.4350000000000001
    71   1      14.350000000000001      8.6099999999999994                       0
    72   1      15.785000000000002                  10.045      1.4350000000000001
    73   1      17.219999999999999      8.6099999999999994                       0
    74   1      18.654999999999998                  10.045      1.4350000000000001
    75   1                   20.09      8.6099999999999994                       0
    76   1      21.524999999999999                  10.045      1.4350000000000001
    77   1      22.960000000000001      8.6099999999999994                       0
    78   1                  24.395                  10.045      1.4350000000000001
    79   1      25.830000000000002      8.6099999999999994                       0
    80   1      27.265000000000001                  10.045      1.4350000000000001
    81   1                       0                   11.48                       0
    82   1      1.4350000000000001      12.915000000000001      1.4350000000000001
    83   1      2.8700000000000001                   11.48                       0
    84   1      4.3049999999999997      12.915000000000001      1.4350000000000001
    85   1      5.7400000000000002                   11.48                       0
    86   1      7.1750000000000007      12.915000000000001      1.4350000000000001
    87   1      8.6099999999999994                   11.48                       0
    88   1                  10.045      12.915000000000001      1.4350000000000001
    89   1                   11.48                   11.48                       0
    90   1      12.915000000000001      12.915000000000001      1.4350000000000001
    91   1      14.350000000000001                   11.48                       0
    92   1      15.785000000000002      12.915000000000001      1.4350000000000001
    93   1      17.219999999999999                   11.48                       0
    94   1      18.654999999999998      12.915000000000001      1.4350000000000001
    95   1                   20.09                   11.48                       0
    96   1      21.524999999999999      12.915000000000001      1.4350000000000001
    97   1      22.960000000000001                   11.48                       0
    98   1                  24.395      12.915000000000001      1.4350000000000001
    99   1      25.830000000000002                   11.48                       0
   100   1      27.265000000000001      12.915000000000001      1.4350000000000001
   101   1                       0      14.350000000000001                       0
   102   1      1.4350000000000001      15.785000000000002      1.4350000000000001
   103   1      2.8700000000000001      14.350000000000001                       0
   104   1      4.3049999999999997      15.785000000000002      1.4350000000000001
   105   1      5.7400000000000002      14.350000000000001                       0
   106   1      7.1750000000000007      15.785000000000002      1.4350000000000001
   107   1      8.6099999999999994      14.350000000000001                       0
   108   1                  10.045      15.785000000000002      1.4350000000000001
   109   1                   11.48      14.350000000000001                       0
   110   1      12.915000000000001      15.785000000000002      1.4350000000000001
   111   1      14.350000000000001      14.350000000000001                       0
   112   1      15.785000000000002      15.785000000000002      1.4350000000000001
   113   1      17.219999999999999      14.350000000000001                       0
   114   1      18.654999999999998      15.785000000000002      1.4350000000000001
   115   1                   20.09      14.350000000000001                       0
   116   1      21.524999999999999      15.785000000000002      1.4350000000000001
   117   1      22.960000000000001      14.350000000000001                       0
   118   1                  24.395      15.785000000000002      1.4350000000000001
   119   1      25.830000000000002      14.350000000000001                       0
   120   1      27.265000000000001      15.785000000000002      1.4350000000000001
   121   1                       0      17.219999999999999                       0
   122   1      1.4350000000000001      18.654999999999998      1.4350000000000001
   123   1      2.8700000000000001      17.219999999999999                       0
   124   1      4.3049999999999997      18.654999999999998      1.4350000000000001
   125   1      5.7400000000000002      17.219999999999999                       0
   126   1      7.1750000000000007      18.654999999999998      1.4350000000000001
   127   1      8.6099999999999994      17.219999999999999                       0
   128   1                  10.045      18.654999999999998      1.4350000000000001
   129   1                   11.48      17.219999999999999                       0
   130   1      12.915000000000001      18.654999999999998      1.4350000000000001
   131   1      14.350000000000001      17.219999999999999                       0
   132   1      15.785000000000002      18.654999999999998      1.4350000000000001
   133   1      17.219999999999999      17.219999999999999                       0
   134   1      18.654999999999998      18.654999999999998      1.4350000000000001
   135   1                   20.09      17.219999999999999                       0
   136   1      21.524999999999999      18.654999999999998      1.4350000000000001
   137   1      22.960000000000001      17.219999999999999                       0
   138   1                  24.395      18.654999999999998      1.4350000000000001
   139   1      25.830000000000002      17.219999999999999                       0
   140   1      27.265000000000001      18.654999999999998      1.4350000000000001
   141   1                       0                   20.09                       0
   142   1      1.4350000000000001      21.524999999999999      1.4350000000000001
   143   1      2.8700000000000001                   20.09                       0
   144   1      4.3049999999999997      21.524999999999999      1.4350000000000001
   145   1      5.7400000000000002                   20.09                       0
   146   1      7.1750000000000007      21.524999999999999      1.4350000000000001
   147   1      8.6099999999999994                   20.09                       0
   148   1                  10.045      21.524999999999999      1.4350000000000001
   149   1                   11.48                   20.09                       0
   150   1      12.915000000000001      21.524999999999999      1.4350000000000001
   151   1      14.350000000000001                   20.09                       0
   152   1      15.785000000000002      21.524999999999999      1.4350000000000001
   153   1      17.219999999999999                   20.09                       0
   154   1      18.654999999999998      21.524999999999999      1.4350000000000001
   155   1                   20.09                   20.09                       0
   156   1      21.524999999999999      21.524999999999999      1.4350000000000001
   157   1      22.960000000000001                   20.09                       0
   158   1                  24.395      21.524999999999999      1.4350000000000001
   159   1      25.830000000000002                   20.09                       0
   160   1      27.265000000000001      21.524999999999999      1.4350000000000001
   161   1                       0      22.960000000000001                       0
   162   1      1.4350000000000001                  24.395      1.4350000000000001
   163   1      2.8700000000000001      22.960000000000001                       0
   164   1      4.3049999999999997                  24.395      1.4350000000000001
   165   1      5.7400000000000002      22.960000000000001                       0
   166   1      7.1750000000000007                  24.395      1.4350000000000001
   167   1      8.6099999999999994      22.960000000000001                       0
   168   1                  10.045                  24.395      1.4350000000000001
   169   1                   11.48      22.960000000000001                       0
   170   1      12.915000000000001                  24.395      1.4350000000000001
   171   1      14.350000000000001      22.960000000000001                       0
   172   1      15.785000000000002                  24.395      1.4350000000000001
   173   1      17.219999999999999      22.960000000000001                       0
   174   1      18.654999999999998                  24.395      1.4350000000000001
   175   1                   20.09      22.960000000000001                       0
   176   1      21.524999999999999                  24.395      1.4350000000000001
   177   1      22.960000000000001      22.960000000000001                       0
   178   1                  24.395                  24.395      1.4350000000000001
   179   1      25.830000000000002      22.960000000000001                       0
   180   1      27.265000000000001                  24.395      1.4350000000000001
   181   1                       0      25.830000000000002                       0
   182   1      1.4350000000000001      27.265000000000001      1.4350000000000001
   183   1      2.8700000000000001      25.830000000000002                       0
   184   1      4.3049999999999997      27.265000000000001      1.4350000000000001
   185   1      5.7400000000000002      25.830000000000002                       0
   186   1      7.1750000000000007      27.265000000000001      1.4350000000000001
   187   1      8.6099999999999994      25.830000000000002                       0
   188   1                  10.045      27.265000000000001      1.4350000000000001
   189   1                   11.48      25.830000000000002                       0
   190   1      12.915000000000001      27.265000000000001      1.4350000000000001
   191   1      14.350000000000001      25.830000000000002                       0
   192   1      15.785000000000002      27.265000000000001      1.4350000000000001
   193   1      17.219999999999999      25.830000000000002                       0
   194   1      18.654999999999998      27.265000000000001      1.4350000000000001
   195   1                   20.09      25.830000000000002                       0
   196   1      21.524999999999999      27.265000000000001      1.4350000000000001
   197   1      22.960000000000001      25.830000000000002                       0
   198   1                  24.395      27.265000000000001      1.4350000000000001
   199   1      25.830000000000002      25.830000000000002                       0
   200   1      27.265000000000001      27.265000000000001      1.4350000000000001
   201   1                       0                       0      2.8700000000000001
   202   1      1.4350000000000001      1.4350000000000001      4.3049999999999997
   203   1      2.8700000000000001                       0      2.8700000000000001
   204   1      4.3049999999999997      1.4350000000000001      4.3049999999999997
   205   1      5.7400000000000002                       0      2.8700000000000001
   206   1      7.1750000000000007      1.4350000000000001      4.3049999999999997
   207   1      8.6099999999999994                       0      2.8700000000000001
   208   1                  10.045      1.4350000000000001      4.3049999999999997
   209   1                   11.48                       0      2.8700000000000001
   210   1      12.915000000000001      1.4350000000000001      4.3049999999999997
   211   1      14.350000000000001                       0      2.8700000000000001
   212   1      15.785000000000002      1.4350000000000001      4.3049999999999997
   213   1      17.219999999999999                       0      2.8700000000000001
   214   1      18.654999999999998      1.4350000000000001      4.3049999999999997
   215   1                   20.09                       0      2.8700000000000001
   216   1      21.524999999999999      1.4350000000000001      4.3049999999999997
   217   1      22.960000000000001                       0      2.8700000000000001
   218   1                  24.395      1.4350000000000001      4.3049999999999997
   219   1      25.830000000000002                       0      2.8700000000000001
   220   1      27.265000000000001      1.4350000000000001      4.3049999999999997
   221   1                       0      2.8700000000000001      2.8700000000000001
   222   1      1.4350000000000001      4.3049999999999997      4.3049999999999997
   223   1      2.8700000000000001      2.8700000000000001      2.8700000000000001
   224   1      4.3049999999999997      4.3049999999999997      4.3049999999999997
   225   1      5.7400000000000002      2.8700000000000001      2.8700000000000001
   226   1      7.1750000000000007      4.3049999999999997      4.3049999999999997
   227   1      8.6099999999999994      2.8700000000000001      2.8700000000000001
   228   1                  10.045      4.3049999999999997      4.3049999999999997
   229   1                   11.48      2.8700000000000001      2.8700000000000001
   230   1      12.915000000000001      4.3049999999999997      4.3049999999999997
   231   1      14.350000000000001      2.8700000000000001      2.8700000000000001
   232   1      15.785000000000002      4.3049999999999997      4.3049999999999997
   233   1      17.219999999999999      2.8700000000000001      2.8700000000000001
   234   1      18.654999999999998      4.3049999999999997      4.3049999999999997
   235   1                   20.09      2.8700000000000001      2.8700000000000001
   236   1      21.524999999999999      4.3049999999999997      4.3049999999999997
   237   1      22.960000000000001      2.8700000000000001      2.8700000000000001
   238   1                  24.395      4.3049999999999997      4.3049999999999997
   239   1      25.830000000000002      2.8700000000000001      2.8700000000000001
   240   1      27.265000000000001      4.3049999999999997      4.3049999999999997
   241   1                       0      5.7400000000000002      2.8700000000000001
   242   1      1.4350000000000001      7.1750000000000007      4.3049999999999997
   243   1      2.8700000000000001      5.7400000000000002      2.8700000000000001
   244   1      4.3049999999999997      7.1750000000000007      4.3049999999999997
   245   1      5.7400000000000002      5.7400000000000002      2.8700000000000001
   246   1      7.1750000000000007      7.1750000000000007      4.3049999999999997
   247   1      8.6099999999999994      5.7400000000000002      2.8700000000000001
   248   1                  10.045      7.1750000000000007      4.3049999999999997
   249   1                   11.48      5.7400000000000002      2.8700000000000001
   250   1      12.915000000000001      7.1750000000000007      4.3049999999999997
   251   1      14.350000000000001      5.7400000000000002      2.8700000000000001
   252   1      15.785000000000002      7.1750000000000007      4.3049999999999997
   253   1      17.219999999999999      5.7400000000000002      2.8700000000000001
   254   1      18.654999999999998      7.1750000000000007      4.3049999999999997
   255   1                   20.09      5.7400000000000002      2.8700000000000001
   256   1      21.524999999999999      7.1750000000000007      4.3049999999999997
   257   1      22.960000000000001      5.7400000000000002      2.8700000000000001
   258   1                  24.395      7.1750000000000007      4.3049999999999997
   259   1      25.830000000000002      5.7400000000000002      2.8700000000000001
   260   1      27.265000000000001      7.1750000000000007      4.3049999999999997
   261   1                       0      8.6099999999999994      2.8700000000000001
   262   1      1.4350000000000001                  10.045      4.3049999999999997
   263   1      2.8700000000000001      8.6099999999999994      2.8700000000000001
   264   1      4.3049999999999997                  10.045      4.3049999999999997
   265   1      5.7400000000000002      8.6099999999999994      2.8700000000000001
   266   1      7.1750000000000007                  10.045      4.3049999999999997
   267   1      8.6099999999999994      8.6099999999999994      2.8700000000000001
   268   1                  10.045                  10.045      4.3049999999999997
   269   1                   11.48      8.6099999999999994      2.8700000000000001
   270   1      12.915000000000001                  10.045      4.3049999999999997
   271   1      14.350000000000001      8.6099999999999994      2.8700000000000001
   272   1      15.785000000000002                  10.045      4.3049999999999997
   273   1      17.219999999999999      8.6099999999999994      2.8700000000000001
   274   1      18.654999999999998                  10.045      4.3049999999999997
   275   1                   20.09      8.6099999999999994      2.8700000000000001
   276   1      21.524999999999999                  10.045      4.3049999999999997
   277   1      22.960000000000001      8.6099999999999994      2.8700000000000001
   278   1                  24.395                  10.045      4.3049999999999997
   279   1      25.830000000000002      8.6099999999999994      2.8700000000000001
   280   1      27.265000000000001                  10.045      4.3049999999999997
   281   1                       0                   11.48      2.8700000000000001
   282   1      1.4350000000000001      12.915000000000001      4.3049999999999997
   283   1      2.8700000000000001                   11.48      2.8700000000000001
   284   1      4.3049999999999997      12.915000000000001      4.3049999999999997
   285   1      5.7400000000000002                   11.48      2.8700000000000001
   286   1      7.1750000000000007      12.915000000000001      4.3049999999999997
   287   1      8.6099999999999994                   11.48      2.8700000000000001
   288   1                  10.045      12.915000000000001      4.3049999999999997
   289   1                   11.48                   11.48      2.8700000000000001
   290   1      12.915000000000001      12.915000000000001      4.3049999999999997
   291   1      14.350000000000001                   11.48      2.8700000000000001
   292   1      15.785000000000002      12.915000000000001      4.3049999999999997
   293   1      17.219999999999999                   11.48      2.8700000000000001
   294   1      18.654999999999998      12.915000000000001      4.3049999999999997
   295   1                   20.09                   11.48      2.8700000000000001
   296   1      21.524999999999999      12.915000000000001      4.3049999999999997
   297   1      22.960000000000001                   11.48      2.8700000000000001
   298   1                  24.395      12.915000000000001      4.3049999999999997
   299   1      25.830000000000002                   11.48      2.8700000000000001
   300   1      27.265000000000001      12.915000000000001      4.3049999999999997
   301   1                       0      14.350000000000001      2.8700000000000001
   302   1      1.4350000000000001      15.785000000000002      4.3049999999999997
   303   1      2.8700000000000001      14.350000000000001      2.8700000000000001
   304   1      4.3049999999999997      15.785000000000002      4.3049999999999997
   305   1      5.7400000000000002      14.350000000000001      2.8700000000000001
   306   1      7.1750000000000007      15.785000000000002      4.3049999999999997
   307   1      8.6099999999999994      14.350000000000001      2.8700000000000001
   308   1                  10.045      15.785000000000002      4.3049999999999997
   309   1                   11.48      14.350000000000001      2.8700000000000001
   310   1      12.915000000000001      15.785000000000002      4.3049999999999997
   311   1      14.350000000000001      14.350000000000001      2.8700000000000001
   312   1      15.785000000000002      15.785000000000002      4.3049999999999997
   313   1      17.219999999999999      14.350000000000001      2.8700000000000001
   314   1      18.654999999999998      15.785000000000002      4.3049999999999997
   315   1                   20.09      14.350000000000001      2.8700000000000001
   316   1      21.524999999999999      15.785000000000002      4.3049999999999997
   317   1      22.960000000000001      14.350000000000001      2.8700000000000001
   318   1                  24.395      15.785000000000002      4.3049999999999997
   319   1      25.830000000000002      14.350000000000001      2.8700000000000001
   320   1      27.265000000000001      15.785000000000002      4.3049999999999997
   321   1                       0      17.219999999999999      2.8700000000000001
   322   1      1.4350000000000001      18.654999999999998      4.3049999999999997
   323   1      2.8700000000000001      17.219999999999999      2.8700000000000001
   324   1      4.3049999999999997      18.654999999999998      4.3049999999999997
   325   1      5.7400000000000002      17.219999999999999      2.8700000000000001
   326   1      7.1750000000000007      18.654999999999998      4.3049999999999997
   327   1      8.6099999999999994      17.219999999999999      2.8700000000000001
   328   1                  10.045      18.654999999999998      4.3049999999999997
   329   1                   11.48      17.219999999999999      2.8700000000000001
   330   1      12.915000000000001      18.654999999999998      4.3049999999999997
   331   1      14.350000000000001      17.219999999999999      2.8700000000000001
   332   1      15.785000000000002      18.654999999999998      4.3049999999999997
   333   1      17.219999999999999      17.219999999999999      2.8700000000000001
   334   1      18.654999999999998      18.654999999999998      4.3049999999999997
   335   1                   20.09      17.219999999999999      2.8700000000000001
   336   1      21.524999999999999      18.654999999999998      4.3049999999999997
   337   1      22.960000000000001      17.219999999999999      2.8700000000000001
   338   1                  24.395      18.654999999999998      4.3049999999999997
   339   1      25.830000000000002      17.219999999999999      2.8700000000000001
   340   1      27.265000000000001      18.654999999999998      4.3049999999999997
   341   1                       0                   20.09      2.8700000000000001
   342   1      1.4350000000000001      21.524999999999999      4.3049999999999997
   343   1      2.8700000000000001                   20.09      2.8700000000000001
   344   1      4.3049999999999997      21.524999999999999      4.3049999999999997
   345   1      5.7400000000000002                   20.09      2.8700000000000001
   346   1      7.1750000000000007      21.524999999999999      4.3049999999999997
   347   1      8.6099999999999994                   20.09      2.8700000000000001
   348   1                  10.045      21.524999999999999      4.3049999999999997
   349   1                   11.48                   20.09      2.8700000000000001
   350   1      12.915000000000001      21.524999999999999      4.3049999999999997
   351   1      14.350000000000001                   20.09      2.8700000000000001
   352   1      15.785000000000002      21.524999999999999      4.3049999999999997
   353   1      17.219999999999999                   20.09      2.8700000000000001
   354   1      18.654999999999998      21.524999999999999      4.3049999999999997
   355   1                   20.09                   20.09      2.8700000000000001
   356   1      21.524999999999999      21.524999999999999      4.3049999999999997
   357   1      22.960000000000001                   20.09      2.8700000000000001
   358   1                  24.395      21.524999999999999      4.3049999999999997