lattice/diamond/Si/defect/vacancy/initial/Si_vacancy.lmp (written by ASE) 

7920 	 atoms 
1  atom types
0.0      54.299999999999997  xlo xhi
0.0      54.299999999999997  ylo yhi
0.0      54.299999999999997  zlo zhi


Atoms 

     1   1                       0                       0                       0
     2   1      1.3574999999999999      1.3574999999999999      1.3574999999999999
     3   1      2.7149999999999999      2.7149999999999999                       0
     4   1      4.0724999999999998      4.0724999999999998      1.3574999999999999
     5   1      2.7149999999999999                       0      2.7149999999999999
     6   1                       0      2.7149999999999999      2.7149999999999999
     7   1      4.0724999999999998      1.3574999999999999      4.0724999999999998
     8   1      1.3574999999999999      4.0724999999999998      4.0724999999999998
     9   1      5.4299999999999997                       0                       0
    10   1      6.7874999999999996      1.3574999999999999      1.3574999999999999
    11   1      8.1449999999999996      2.7149999999999999                       0
    12   1      9.5024999999999995      4.0724999999999998      1.3574999999999999
    13   1      5.4299999999999997      2.7149999999999999      2.7149999999999999
    14   1      9.5024999999999995      1.3574999999999999      4.0724999999999998
    15   1      6.7874999999999996      4.0724999999999998      4.0724999999999998
    16   1      10.859999999999999                       0                       0
    17   1      12.217499999999999      1.3574999999999999      1.3574999999999999
    18   1      13.574999999999999      2.7149999999999999                       0
    19   1      14.932499999999999      4.0724999999999998      1.3574999999999999
    20   1      13.574999999999999                       0      2.7149999999999999
    21   1      10.859999999999999      2.7149999999999999      2.7149999999999999
    22   1      14.932499999999999      1.3574999999999999      4.0724999999999998
    23   1      12.217499999999999      4.0724999999999998      4.0724999999999998
    24   1      16.289999999999999                       0                       0
    25   1      17.647500000000001      1.3574999999999999      1.3574999999999999
    26   1      19.004999999999999      2.7149999999999999                       0
    27   1      20.362499999999997      4.0724999999999998      1.3574999999999999
    28   1      19.004999999999999                       0      2.7149999999999999
    29   1      16.289999999999999      2.7149999999999999      2.7149999999999999
    30   1      20.362499999999997      1.3574999999999999      4.0724999999999998
    31   1      17.647500000000001      4.0724999999999998      4.0724999999999998
    32   1      21.719999999999999                       0                       0
    33   1      23.077500000000001      1.3574999999999999      1.3574999999999999
    34   1      24.434999999999999      2.7149999999999999                       0
    35   1      25.792499999999997      4.0724999999999998      1.3574999999999999
    36   1      24.434999999999999                       0      2.7149999999999999
    37   1      21.719999999999999      2.7149999999999999      2.7149999999999999
    38   1      25.792499999999997      1.3574999999999999      4.0724999999999998
    39   1      23.077500000000001      4.0724999999999998      4.0724999999999998
    40   1      27.149999999999999                       0                       0
    41   1                 28.5075      1.3574999999999999      1.3574999999999999
    42   1      29.864999999999998      2.7149999999999999                       0
    43   1      31.222499999999997      4.0724999999999998      1.3574999999999999
    44   1      29.864999999999998                       0      2.7149999999999999
    45   1      27.149999999999999      2.7149999999999999      2.7149999999999999
    46   1      31.222499999999997      1.3574999999999999      4.0724999999999998
    47   1                 28.5075      4.0724999999999998      4.0724999999999998
    48   1      32.579999999999998                       0                       0
    49   1                 33.9375      1.3574999999999999      1.3574999999999999
    50   1      35.295000000000002      2.7149999999999999                       0
    51   1      36.652499999999996      4.0724999999999998      1.3574999999999999
    52   1      35.295000000000002                       0      2.7149999999999999
    53   1      32.579999999999998      2.7149999999999999      2.7149999999999999
    54   1      36.652499999999996      1.3574999999999999      4.0724999999999998
    55   1                 33.9375      4.0724999999999998      4.0724999999999998
    56   1      38.009999999999998                       0                       0
    57   1                 39.3675      1.3574999999999999      1.3574999999999999
    58   1      40.724999999999994      2.7149999999999999                       0
    59   1      42.082499999999996      4.0724999999999998      1.3574999999999999
    60   1      40.724999999999994                       0      2.7149999999999999
    61   1      38.009999999999998      2.7149999999999999      2.7149999999999999
    62   1      42.082499999999996      1.3574999999999999      4.0724999999999998
    63   1                 39.3675      4.0724999999999998      4.0724999999999998
    64   1      43.439999999999998                       0                       0
    65   1      44.797499999999999      1.3574999999999999      1.3574999999999999
    66   1      46.155000000000001      2.7149999999999999                       0
    67   1      47.512499999999996      4.0724999999999998      1.3574999999999999
    68   1      46.155000000000001                       0      2.7149999999999999
    69   1      43.439999999999998      2.7149999999999999      2.7149999999999999
    70   1      47.512499999999996      1.3574999999999999      4.0724999999999998
    71   1      44.797499999999999      4.0724999999999998      4.0724999999999998
    72   1      48.869999999999997                       0                       0
    73   1      50.227499999999999      1.3574999999999999      1.3574999999999999
    74   1      51.584999999999994      2.7149999999999999                       0
    75   1      52.942499999999995      4.0724999999999998      1.3574999999999999
    76   1      51.584999999999994                       0      2.7149999999999999
    77   1      48.869999999999997      2.7149999999999999      2.7149999999999999
    78   1      52.942499999999995      1.3574999999999999      4.0724999999999998
    79   1      50.227499999999999      4.0724999999999998      4.0724999999999998
    80   1                       0      5.4299999999999997                       0
    81   1      1.3574999999999999      6.7874999999999996      1.3574999999999999
    82   1      2.7149999999999999      8.1449999999999996                       0
    83   1      4.0724999999999998      9.5024999999999995      1.3574999999999999
    84   1      2.7149999999999999      5.4299999999999997      2.7149999999999999
    85   1                       0      8.1449999999999996      2.7149999999999999
    86   1      4.0724999999999998      6.7874999999999996      4.0724999999999998
    87   1      1.3574999999999999      9.5024999999999995      4.0724999999999998
    88   1      5.4299999999999997      5.4299999999999997                       0
    89   1      6.7874999999999996      6.7874999999999996      1.3574999999999999
    90   1      8.1449999999999996      8.1449999999999996                       0
    91   1      9.5024999999999995      9.5024999999999995      1.3574999999999999
    92   1      8.1449999999999996      5.4299999999999997      2.7149999999999999
    93   1      5.4299999999999997      8.1449999999999996      2.7149999999999999
    94   1      9.5024999999999995      6.7874999999999996      4.0724999999999998
    95   1      6.7874999999999996      9.5024999999999995      4.0724999999999998
    96   1      10.859999999999999      5.4299999999999997                       0
    97   1      12.217499999999999      6.7874999999999996      1.3574999999999999
    98   1      13.574999999999999      8.1449999999999996                       0
    99   1      14.932499999999999      9.5024999999999995      1.3574999999999999
   100   1      13.574999999999999      5.4299999999999997      2.7149999999999999
   101   1      10.859999999999999      8.1449999999999996      2.7149999999999999
   102   1      14.932499999999999      6.7874999999999996      4.0724999999999998
   103   1      12.217499999999999      9.5024999999999995      4.0724999999999998
   104   1      16.289999999999999      5.4299999999999997                       0
   105   1      17.647500000000001      6.7874999999999996      1.3574999999999999
   106   1      19.004999999999999      8.1449999999999996                       0
   107   1      20.362499999999997      9.5024999999999995      1.3574999999999999
   108   1      19.004999999999999      5.4299999999999997      2.7149999999999999
   109   1      16.289999999999999      8.1449999999999996      2.7149999999999999
   110   1      20.362499999999997      6.7874999999999996      4.0724999999999998
   111   1      17.647500000000001      9.5024999999999995      4.0724999999999998
   112   1      21.719999999999999      5.4299999999999997                       0
   113   1      23.077500000000001      6.7874999999999996      1.3574999999999999
   114   1      24.434999999999999      8.1449999999999996                       0
   115   1      25.792499999999997      9.5024999999999995      1.3574999999999999
   116   1      24.434999999999999      5.4299999999999997      2.7149999999999999
   117   1      21.719999999999999      8.1449999999999996      2.7149999999999999
   118   1      25.792499999999997      6.7874999999999996      4.0724999999999998
   119   1      27.149999999999999      5.4299999999999997                       0
   120   1                 28.5075      6.7874999999999996      1.3574999999999999
   121   1      29.864999999999998      8.1449999999999996                       0
   122   1      31.222499999999997      9.5024999999999995      1.3574999999999999
   123   1      29.864999999999998      5.4299999999999997      2.7149999999999999
   124   1      27.149999999999999      8.1449999999999996      2.7149999999999999
   125   1      31.222499999999997      6.7874999999999996      4.0724999999999998
   126   1                 28.5075      9.5024999999999995      4.0724999999999998
   127   1      32.579999999999998      5.4299999999999997                       0
   128   1                 33.9375      6.7874999999999996      1.3574999999999999
   129   1      35.295000000000002      8.1449999999999996                       0
   130   1      36.652499999999996      9.5024999999999995      1.3574999999999999
   131   1      35.295000000000002      5.4299999999999997      2.7149999999999999
   132   1      32.579999999999998      8.1449999999999996      2.7149999999999999
   133   1      36.652499999999996      6.7874999999999996      4.0724999999999998
   134   1                 33.9375      9.5024999999999995      4.0724999999999998
   135   1                 39.3675      6.7874999999999996      1.3574999999999999
   136   1      40.724999999999994      8.1449999999999996                       0
   137   1      42.082499999999996      9.5024999999999995      1.3574999999999999
   138   1      40.724999999999994      5.4299999999999997      2.7149999999999999
   139   1      38.009999999999998      8.1449999999999996      2.7149999999999999
   140   1      42.082499999999996      6.7874999999999996      4.0724999999999998
   141   1                 39.3675      9.5024999999999995      4.0724999999999998
   142   1      43.439999999999998      5.4299999999999997                       0
   143   1      44.797499999999999      6.7874999999999996      1.3574999999999999
   144   1      46.155000000000001      8.1449999999999996                       0
   145   1      47.512499999999996      9.5024999999999995      1.3574999999999999
   146   1      46.155000000000001      5.4299999999999997      2.7149999999999999
   147   1      43.439999999999998      8.1449999999999996      2.7149999999999999
   148   1      47.512499999999996      6.7874999999999996      4.0724999999999998
   149   1      44.797499999999999      9.5024999999999995      4.0724999999999998
   150   1      48.869999999999997      5.4299999999999997                       0
   151   1      50.227499999999999      6.7874999999999996      1.3574999999999999
   152   1      51.584999999999994      8.1449999999999996                       0
   153   1      52.942499999999995      9.5024999999999995      1.3574999999999999
   154   1      51.584999999999994      5.4299999999999997      2.7149999999999999
   155   1      48.869999999999997      8.1449999999999996      2.7149999999999999
   156   1      52.942499999999995      6.7874999999999996      4.0724999999999998
   157   1      50.227499999999999      9.5024999999999995      4.0724999999999998
   158   1                       0      10.859999999999999                       0
   159   1      1.3574999999999999      12.217499999999999      1.3574999999999999
   160   1      2.7149999999999999      13.574999999999999                       0
   161   1      4.0724999999999998      14.932499999999999      1.3574999999999999
   162   1      2.7149999999999999      10.859999999999999      2.7149999999999999
   163   1                       0      13.574999999999999      2.7149999999999999
   164   1      4.0724999999999998      12.217499999999999      4.0724999999999998
   165   1      1.3574999999999999      14.932499999999999      4.0724999999999998
   166   1      5.4299999999999997      10.859999999999999                       0
   167   1      6.7874999999999996      12.217499999999999      1.3574999999999999
   168   1      8.1449999999999996      13.574999999999999                       0
   169   1      9.5024999999999995      14.932499999999999      1.3574999999999999
   170   1      8.1449999999999996      10.859999999999999      2.7149999999999999
   171   1      5.4299999999999997      13.574999999999999      2.7149999999999999
   172   1      9.5024999999999995      12.217499999999999      4.0724999999999998
   173   1      6.7874999999999996      14.932499999999999      4.0724999999999998
   174   1      10.859999999999999      10.859999999999999                       0
   175   1      12.217499999999999      12.217499999999999      1.3574999999999999
   176   1      13.574999999999999      13.574999999999999                       0
   177   1      14.932499999999999      14.932499999999999      1.3574999999999999
   178   1      13.574999999999999      10.859999999999999      2.7149999999999999
   179   1      10.859999999999999      13.574999999999999      2.7149999999999999
   180   1      14.932499999999999      12.217499999999999      4.0724999999999998
   181   1      12.217499999999999      14.932499999999999      4.0724999999999998
   182   1      16.289999999999999      10.859999999999999                       0
   183   1      17.647500000000001      12.217499999999999      1.3574999999999999
   184   1      19.004999999999999      13.574999999999999                       0
   185   1      20.362499999999997      14.932499999999999      1.3574999999999999
   186   1      19.004999999999999      10.859999999999999      2.7149999999999999
   187   1      16.289999999999999      13.574999999999999      2.7149999999999999
   188   1      20.362499999999997      12.217499999999999      4.0724999999999998
   189   1      17.647500000000001      14.932499999999999      4.0724999999999998
   190   1      21.719999999999999      10.859999999999999                       0
   191   1      24.434999999999999      13.574999999999999                       0
   192   1      25.792499999999997      14.932499999999999      1.3574999999999999
   193   1      24.434999999999999      10.859999999999999      2.7149999999999999
   194   1      21.719999999999999      13.574999999999999      2.7149999999999999
   195   1      25.792499999999997      12.217499999999999      4.0724999999999998
   196   1      23.077500000000001      14.932499999999999      4.0724999999999998
   197   1      27.149999999999999      10.859999999999999                       0
   198   1                 28.5075      12.217499999999999      1.3574999999999999
   199   1      29.864999999999998      13.574999999999999                       0
   200   1      31.222499999999997      14.932499999999999      1.3574999999999999
   201   1      29.864999999999998      10.859999999999999      2.7149999999999999
   202   1      27.149999999999999      13.574999999999999      2.7149999999999999
   203   1      31.222499999999997      12.217499999999999      4.0724999999999998
   204   1                 28.5075      14.932499999999999      4.0724999999999998
   205   1      32.579999999999998      10.859999999999999                       0
   206   1                 33.9375      12.217499999999999      1.3574999999999999
   207   1      35.295000000000002      13.574999999999999                       0
   208   1      36.652499999999996      14.932499999999999      1.3574999999999999
   209   1      35.295000000000002      10.859999999999999      2.7149999999999999
   210   1      32.579999999999998      13.574999999999999      2.7149999999999999
   211   1      36.652499999999996      12.217499999999999      4.0724999999999998
   212   1                 33.9375      14.932499999999999      4.0724999999999998
   213   1      38.009999999999998      10.859999999999999                       0
   214   1                 39.3675      12.217499999999999      1.3574999999999999
   215   1      40.724999999999994      13.574999999999999                       0
   216   1      42.082499999999996      14.932499999999999      1.3574999999999999
   217   1      40.724999999999994      10.859999999999999      2.7149999999999999
   218   1      38.009999999999998      13.574999999999999      2.7149999999999999
   219   1      42.082499999999996      12.217499999999999      4.0724999999999998
   220   1                 39.3675      14.932499999999999      4.0724999999999998
   221   1      43.439999999999998      10.859999999999999                       0
   222   1      44.797499999999999      12.217499999999999      1.3574999999999999
   223   1      46.155000000000001      13.574999999999999                       0
   224   1      47.512499999999996      14.932499999999999      1.3574999999999999
   225   1      46.155000000000001      10.859999999999999      2.7149999999999999
   226   1      47.512499999999996      12.217499999999999      4.0724999999999998
   227   1      44.797499999999999      14.932499999999999      4.0724999999999998
   228   1      48.869999999999997      10.859999999999999                       0
   229   1      50.227499999999999      12.217499999999999      1.3574999999999999
   230   1      51.584999999999994      13.574999999999999                       0
   231   1      52.942499999999995      14.932499999999999      1.3574999999999999
   232   1      51.584999999999994      10.859999999999999      2.7149999999999999
   233   1      48.869999999999997      13.574999999999999      2.7149999999999999
   234   1      52.942499999999995      12.217499999999999      4.0724999999999998
   235   1      50.227499999999999      14.932499999999999      4.0724999999999998
   236   1                       0      16.289999999999999                       0
   237   1      1.3574999999999999      17.647500000000001      1.3574999999999999
   238   1      2.7149999999999999      19.004999999999999                       0
   239   1      4.0724999999999998      20.362499999999997      1.3574999999999999
   240   1      2.7149999999999999      16.289999999999999      2.7149999999999999
   241   1                       0      19.004999999999999      2.7149999999999999
   242   1      4.0724999999999998      17.647500000000001      4.0724999999999998
   243   1      1.3574999999999999      20.362499999999997      4.0724999999999998
   244   1      5.4299999999999997      16.289999999999999                       0
   245   1      6.7874999999999996      17.647500000000001      1.3574999999999999
   246   1      8.1449999999999996      19.004999999999999                       0
   247   1      9.5024999999999995      20.362499999999997      1.3574999999999999
   248   1      8.1449999999999996      16.289999999999999      2.7149999999999999
   249   1      5.4299999999999997      19.004999999999999      2.7149999999999999
   250   1      9.5024999999999995      17.647500000000001      4.0724999999999998
   251   1      6.7874999999999996      20.362499999999997      4.0724999999999998
   252   1      10.859999999999999      16.289999999999999                       0
   253   1      12.217499999999999      17.647500000000001      1.3574999999999999
   254   1      13.574999999999999      19.004999999999999                       0
   255   1      14.932499999999999      20.362499999999997      1.3574999999999999
   256   1      13.574999999999999      16.289999999999999      2.7149999999999999
   257   1      10.859999999999999      19.004999999999999      2.7149999999999999
   258   1      14.932499999999999      17.647500000000001      4.0724999999999998
   259   1      12.217499999999999      20.362499999999997      4.0724999999999998
   260   1      16.289999999999999      16.289999999999999                       0
   261   1      19.004999999999999      19.004999999999999                       0
   262   1      20.362499999999997      20.362499999999997      1.3574999999999999
   263   1      19.004999999999999      16.289999999999999      2.7149999999999999
   264   1      16.289999999999999      19.004999999999999      2.7149999999999999
   265   1      20.362499999999997      17.647500000000001      4.0724999999999998
   266   1      17.647500000000001      20.362499999999997      4.0724999999999998
   267   1      21.719999999999999      16.289999999999999                       0
   268   1      23.077500000000001      17.647500000000001      1.3574999999999999
   269   1      24.434999999999999      19.004999999999999                       0
   270   1      25.792499999999997      20.362499999999997      1.3574999999999999
   271   1      24.434999999999999      16.289999999999999      2.7149999999999999
   272   1      21.719999999999999      19.004999999999999      2.7149999999999999
   273   1      25.792499999999997      17.647500000000001      4.0724999999999998
   274   1      23.077500000000001      20.362499999999997      4.0724999999999998
   275   1      27.149999999999999      16.289999999999999                       0
   276   1                 28.5075      17.647500000000001      1.3574999999999999
   277   1      29.864999999999998      19.004999999999999                       0
   278   1      31.222499999999997      20.362499999999997      1.3574999999999999
   279   1      29.864999999999998      16.289999999999999      2.7149999999999999
   280   1      27.149999999999999      19.004999999999999      2.7149999999999999
   281   1      31.222499999999997      17.647500000000001      4.0724999999999998
   282   1                 28.5075      20.362499999999997      4.0724999999999998
   283   1      32.579999999999998      16.289999999999999                       0
   284   1                 33.9375      17.647500000000001      1.3574999999999999
   285   1      35.295000000000002      19.004999999999999                       0
   286   1      36.652499999999996      20.362499999999997      1.3574999999999999
   287   1      35.295000000000002      16.289999999999999      2.7149999999999999
   288   1      32.579999999999998      19.004999999999999      2.7149999999999999
   289   1      36.652499999999996      17.647500000000001      4.0724999999999998
   290   1                 33.9375      20.362499999999997      4.0724999999999998
   291   1      38.009999999999998      16.289999999999999                       0
   292   1                 39.3675      17.647500000000001      1.3574999999999999
   293   1      40.724999999999994      19.004999999999999                       0
   294   1      42.082499999999996      20.362499999999997      1.3574999999999999
   295   1      40.724999999999994      16.289999999999999      2.7149999999999999
   296   1      38.009999999999998      19.004999999999999      2.7149999999999999
   297   1      42.082499999999996      17.647500000000001      4.0724999999999998
   298   1                 39.3675      20.362499999999997      4.0724999999999998
   299   1      43.439999999999998      16.289999999999999                       0
   300   1      44.797499999999999      17.647500000000001      1.3574999999999999
   301   1      46.155000000000001      19.004999999999999                       0
   302   1      47.512499999999996      20.362499999999997      1.3574999999999999
   303   1      46.155000000000001      16.289999999999999      2.7149999999999999
   304   1      43.439999999999998      19.004999999999999      2.7149999999999999
   305   1      47.512499999999996      17.647500000000001      4.0724999999999998
   306   1      44.797499999999999      20.362499999999997      4.0724999999999998
   307   1      48.869999999999997      16.289999999999999                       0
   308   1      50.227499999999999      17.647500000000001      1.3574999999999999
   309   1      51.584999999999994      19.004999999999999                       0
   310   1      52.942499999999995      20.362499999999997      1.3574999999999999
   311   1      51.584999999999994      16.289999999999999      2.7149999999999999
   312   1      48.869999999999997      19.004999999999999      2.7149999999999999
   313   1      52.942499999999995      17.647500000000001      4.0724999999999998
   314   1      50.227499999999999      20.362499999999997      4.0724999999999998
   315   1                       0      21.719999999999999                       0
   316   1      1.3574999999999999      23.077500000000001      1.3574999999999999
   317   1      2.7149999999999999      24.434999999999999                       0
   318   1      4.0724999999999998      25.792499999999997      1.3574999999999999
   319   1      2.7149999999999999      21.719999999999999      2.7149999999999999
   320   1                       0      24.434999999999999      2.7149999999999999
   321   1      4.0724999999999998      23.077500000000001      4.0724999999999998
   322   1      1.3574999999999999      25.792499999999997      4.0724999999999998
   323   1      5.4299999999999997      21.719999999999999                       0
   324   1      6.7874999999999996      23.077500000000001      1.3574999999999999
   325   1      8.1449999999999996      24.434999999999999                       0
   326   1      9.5024999999999995      25.792499999999997      1.3574999999999999
   327   1      8.1449999999999996      21.719999999999999      2.7149999999999999
   328   1      5.4299999999999997      24.434999999999999      2.7149999999999999
   329   1      9.5024999999999995      23.077500000000001      4.0724999999999998
   330   1      6.7874999999999996      25.792499999999997      4.0724999999999998
   331   1      10.859999999999999      21.719999999999999                       0
   332   1      12.217499999999999      23.077500000000001      1.3574999999999999
   333   1      13.574999999999999      24.434999999999999                       0
   334   1      14.932499999999999      25.792499999999997      1.3574999999999999
   335   1      13.574999999999999      21.719999999999999      2.7149999999999999
   336   1      10.859999999999999      24.434999999999999      2.7149999999999999
   337   1      14.932499999999999      23.077500000000001      4.0724999999999998
   338   1      12.217499999999999      25.792499999999997      4.0724999999999998
   339   1      16.289999999999999      21.719999999999999                       0
   340   1      17.647500000000001      23.077500000000001      1.3574999999999999
   341   1      19.004999999999999      24.434999999999999                       0
   342   1      20.362499999999997      25.792499999999997      1.3574999999999999
   343   1      19.004999999999999      21.719999999999999      2.7149999999999999
   344   1      16.289999999999999      24.434999999999999      2.7149999999999999
   345   1      20.362499999999997      23.077500000000001      4.0724999999999998
   346   1      17.647500000000001      25.792499999999997      4.0724999999999998
   347   1      21.719999999999999      21.719999999999999                       0
   348   1      23.077500000000001      23.077500000000001      1.3574999999999999
   349   1      24.434999999999999      24.434999999999999                       0
   350   1      25.792499999999997      25.792499999999997      1.3574999999999999
   351   1      24.434999999999999      21.719999999999999      2.7149999999999999
   352   1      21.719999999999999      24.434999999999999      2.7149999999999999
   353   1      25.792499999999997      23.077500000000001      4.0724999999999998
   354   1      23.077500000000001      25.792499999999997      4.0724999999999998
   355   1      27.149999999999999      21.719999999999999                       0
   356   1                 28.5075      23.077500000000001      1.3574999999999999
   357   1      29.864999999999998      24.434999999999999                       0
   358   1      31.222499999999997      25.792499999999997      1.3574999999999999