lattice/fcc/Al/defect/substitution/initial/Al_substitution.lmp (written by ASE) 

4000 	 atoms 
2  atom types
0.0                    40.5  xlo xhi
0.0                    40.5  ylo yhi
0.0                    40.5  zlo zhi


Atoms 

     1   1                       0                       0                       0
     2   1      2.0249999999999999                       0      2.0249999999999999
     3   1                       0      2.0249999999999999      2.0249999999999999
     4   1      2.0249999999999999      2.0249999999999999                       0
     5   1      4.0499999999999998                       0                       0
     6   1      6.0749999999999993                       0      2.0249999999999999
     7   1      4.0499999999999998      2.0249999999999999      2.0249999999999999
     8   1      6.0749999999999993      2.0249999999999999                       0
     9   1      8.0999999999999996                       0                       0
    10   1                  10.125                       0      2.0249999999999999
    11   1      8.0999999999999996      2.0249999999999999      2.0249999999999999
    12   1                  10.125      2.0249999999999999                       0
    13   1      12.149999999999999                       0                       0
    14   1      14.174999999999999                       0      2.0249999999999999
    15   1      12.149999999999999      2.0249999999999999      2.0249999999999999
    16   1      14.174999999999999      2.0249999999999999                       0
    17   1      16.199999999999999                       0                       0
    18   1      18.224999999999998                       0      2.0249999999999999
    19   1      16.199999999999999      2.0249999999999999      2.0249999999999999
    20   1      18.224999999999998      2.0249999999999999                       0
    21   1                   20.25                       0                       0
    22   1      22.274999999999999                       0      2.0249999999999999
    23   1                   20.25      2.0249999999999999      2.0249999999999999
    24   1      22.274999999999999      2.0249999999999999                       0
    25   1      24.299999999999997                       0                       0
    26   1      26.324999999999996                       0      2.0249999999999999
    27   1      24.299999999999997      2.0249999999999999      2.0249999999999999
    28   1      26.324999999999996      2.0249999999999999                       0
    29   1      28.349999999999998                       0                       0
    30   1      30.374999999999996                       0      2.0249999999999999
    31   1      28.349999999999998      2.0249999999999999      2.0249999999999999
    32   1      30.374999999999996      2.0249999999999999                       0
    33   1      32.399999999999999                       0                       0
    34   1      34.424999999999997                       0      2.0249999999999999
    35   1      32.399999999999999      2.0249999999999999      2.0249999999999999
    36   1      34.424999999999997      2.0249999999999999                       0
    37   2      36.449999999999996                       0                       0
    38   1      38.474999999999994                       0      2.0249999999999999
    39   1      36.449999999999996      2.0249999999999999      2.0249999999999999
    40   1      38.474999999999994      2.0249999999999999                       0
    41   1                       0      4.0499999999999998                       0
    42   1      2.0249999999999999      4.0499999999999998      2.0249999999999999
    43   1                       0      6.0749999999999993      2.0249999999999999
    44   1      2.0249999999999999      6.0749999999999993                       0
    45   1      4.0499999999999998      4.0499999999999998                       0
    46   1      6.0749999999999993      4.0499999999999998      2.0249999999999999
    47   1      4.0499999999999998      6.0749999999999993      2.0249999999999999
    48   1      6.0749999999999993      6.0749999999999993                       0
    49   1      8.0999999999999996      4.0499999999999998                       0
    50   1                  10.125      4.0499999999999998      2.0249999999999999
    51   1      8.0999999999999996      6.0749999999999993      2.0249999999999999
    52   1                  10.125      6.0749999999999993                       0
    53   1      12.149999999999999      4.0499999999999998                       0
    54   1      14.174999999999999      4.0499999999999998      2.0249999999999999
    55   1      12.149999999999999      6.0749999999999993      2.0249999999999999
    56   1      14.174999999999999      6.0749999999999993                       0
    57   1      16.199999999999999      4.0499999999999998                       0
    58   1      18.224999999999998      4.0499999999999998      2.0249999999999999
    59   1      16.199999999999999      6.0749999999999993      2.0249999999999999
    60   1      18.224999999999998      6.0749999999999993                       0
    61   1                   20.25      4.0499999999999998                       0
    62   1      22.274999999999999      4.0499999999999998      2.0249999999999999
    63   1                   20.25      6.0749999999999993      2.0249999999999999
    64   1      22.274999999999999      6.0749999999999993                       0
    65   1      24.299999999999997      4.0499999999999998                       0
    66   1      26.324999999999996      4.0499999999999998      2.0249999999999999
    67   1      24.299999999999997      6.0749999999999993      2.0249999999999999
    68   1      26.324999999999996      6.0749999999999993                       0
    69   1      28.349999999999998      4.0499999999999998                       0
    70   1      30.374999999999996      4.0499999999999998      2.0249999999999999
    71   1      28.349999999999998      6.0749999999999993      2.0249999999999999
    72   1      30.374999999999996      6.0749999999999993                       0
    73   1      32.399999999999999      4.0499999999999998                       0
    74   1      34.424999999999997      4.0499999999999998      2.0249999999999999
    75   1      32.399999999999999      6.0749999999999993      2.0249999999999999
    76   1      34.424999999999997      6.0749999999999993                       0
    77   1      36.449999999999996      4.0499999999999998                       0
    78   1      38.474999999999994      4.0499999999999998      2.0249999999999999
    79   1      36.449999999999996      6.0749999999999993      2.0249999999999999
    80   1      38.474999999999994      6.0749999999999993                       0
    81   1                       0      8.0999999999999996                       0
    82   1      2.0249999999999999      8.0999999999999996      2.0249999999999999
    83   1                       0                  10.125      2.0249999999999999
    84   1      2.0249999999999999                  10.125                       0
    85   1      4.0499999999999998      8.0999999999999996                       0
    86   1      6.0749999999999993      8.0999999999999996      2.0249999999999999
    87   1      4.0499999999999998                  10.125      2.0249999999999999
    88   2      6.0749999999999993                  10.125                       0
    89   1      8.0999999999999996      8.0999999999999996                       0
    90   1                  10.125      8.0999999999999996      2.0249999999999999
    91   1      8.0999999999999996                  10.125      2.0249999999999999
    92   1                  10.125                  10.125                       0
    93   1      12.149999999999999      8.0999999999999996                       0
    94   1      14.174999999999999      8.0999999999999996      2.0249999999999999
    95   1      12.149999999999999                  10.125      2.0249999999999999
    96   1      14.174999999999999                  10.125                       0
    97   1      16.199999999999999      8.0999999999999996                       0
    98   1      18.224999999999998      8.0999999999999996      2.0249999999999999
    99   1      16.199999999999999                  10.125      2.0249999999999999
   100   1      18.224999999999998                  10.125                       0
   101   1                   20.25      8.0999999999999996                       0
   102   1      22.274999999999999      8.0999999999999996      2.0249999999999999
   103   1                   20.25                  10.125      2.0249999999999999
   104   2      22.274999999999999                  10.125                       0
   105   1      24.299999999999997      8.0999999999999996                       0
   106   1      26.324999999999996      8.0999999999999996      2.0249999999999999
   107   1      24.299999999999997                  10.125      2.0249999999999999
   108   1      26.324999999999996                  10.125                       0
   109   1      28.349999999999998      8.0999999999999996                       0
   110   1      30.374999999999996      8.0999999999999996      2.0249999999999999
   111   1      28.349999999999998                  10.125      2.0249999999999999
   112   1      30.374999999999996                  10.125                       0
   113   1      32.399999999999999      8.0999999999999996                       0
   114   1      34.424999999999997      8.0999999999999996      2.0249999999999999
   115   1      32.399999999999999                  10.125      2.0249999999999999
   116   1      34.424999999999997                  10.125                       0
   117   1      36.449999999999996      8.0999999999999996                       0
   118   2      38.474999999999994      8.0999999999999996      2.0249999999999999
   119   1      36.449999999999996                  10.125      2.0249999999999999
   120   1      38.474999999999994                  10.125                       0
   121   1                       0      12.149999999999999                       0
   122   1      2.0249999999999999      12.149999999999999      2.0249999999999999
   123   1                       0      14.174999999999999      2.0249999999999999
   124   1      2.0249999999999999      14.174999999999999                       0
   125   1      4.0499999999999998      12.149999999999999                       0
   126   1      6.0749999999999993      12.149999999999999      2.0249999999999999
   127   1      4.0499999999999998      14.174999999999999      2.0249999999999999
   128   1      6.0749999999999993      14.174999999999999                       0
   129   1      8.0999999999999996      12.149999999999999                       0
   130   1                  10.125      12.149999999999999      2.0249999999999999
   131   1      8.0999999999999996      14.174999999999999      2.0249999999999999
   132   1                  10.125      14.174999999999999                       0
   133   1      12.149999999999999      12.149999999999999                       0
   134   1      14.174999999999999      12.149999999999999      2.0249999999999999
   135   1      12.149999999999999      14.174999999999999      2.0249999999999999
   136   1      14.174999999999999      14.174999999999999                       0
   137   1      16.199999999999999      12.149999999999999                       0
   138   1      18.224999999999998      12.149999999999999      2.0249999999999999
   139   1      16.199999999999999      14.174999999999999      2.0249999999999999
   140   1      18.224999999999998      14.174999999999999                       0
   141   1                   20.25      12.149999999999999                       0
   142   1      22.274999999999999      12.149999999999999      2.0249999999999999
   143   1                   20.25      14.174999999999999      2.0249999999999999
   144   1      22.274999999999999      14.174999999999999                       0
   145   1      24.299999999999997      12.149999999999999                       0
   146   1      26.324999999999996      12.149999999999999      2.0249999999999999
   147   1      24.299999999999997      14.174999999999999      2.0249999999999999
   148   1      26.324999999999996      14.174999999999999                       0
   149   1      28.349999999999998      12.149999999999999                       0
   150   1      30.374999999999996      12.149999999999999      2.0249999999999999
   151   1      28.349999999999998      14.174999999999999      2.0249999999999999
   152   1      30.374999999999996      14.174999999999999                       0
   153   1      32.399999999999999      12.149999999999999                       0
   154   1      34.424999999999997      12.149999999999999      2.0249999999999999
   155   1      32.399999999999999      14.174999999999999      2.0249999999999999
   156   1      34.424999999999997      14.174999999999999                       0
   157   1      36.449999999999996      12.149999999999999                       0
   158   1      38.474999999999994      12.149999999999999      2.0249999999999999
   159   1      36.449999999999996      14.174999999999999      2.0249999999999999
   160   1      38.474999999999994      14.174999999999999                       0
   161   1                       0      16.199999999999999                       0
   162   1      2.0249999999999999      16.199999999999999      2.0249999999999999
   163   1                       0      18.224999999999998      2.0249999999999999
   164   1      2.0249999999999999      18.224999999999998                       0
   165   1      4.0499999999999998      16.199999999999999                       0
   166   1      6.0749999999999993      16.199999999999999      2.0249999999999999
   167   1      4.0499999999999998      18.224999999999998      2.0249999999999999
   168   1      6.0749999999999993      18.224999999999998                       0
   169   1      8.0999999999999996      16.199999999999999                       0
   170   1                  10.125      16.199999999999999      2.0249999999999999
   171   1      8.0999999999999996      18.224999999999998      2.0249999999999999
   172   1                  10.125      18.224999999999998                       0
   173   1      12.149999999999999      16.199999999999999                       0
   174   1      14.174999999999999      16.199999999999999      2.0249999999999999
   175   1      12.149999999999999      18.224999999999998      2.0249999999999999
   176   1      14.174999999999999      18.224999999999998                       0
   177   1      16.199999999999999      16.199999999999999                       0
   178   1      18.224999999999998      16.199999999999999      2.0249999999999999
   179   1      16.199999999999999      18.224999999999998      2.0249999999999999
   180   1      18.224999999999998      18.224999999999998                       0
   181   1                   20.25      16.199999999999999                       0
   182   1      22.274999999999999      16.199999999999999      2.0249999999999999
   183   1                   20.25      18.224999999999998      2.0249999999999999
   184   1      22.274999999999999      18.224999999999998                       0
   185   1      24.299999999999997      16.199999999999999                       0
   186   1      26.324999999999996      16.199999999999999      2.0249999999999999
   187   1      24.299999999999997      18.224999999999998      2.0249999999999999
   188   1      26.324999999999996      18.224999999999998                       0
   189   1      28.349999999999998      16.199999999999999                       0
   190   1      30.374999999999996      16.199999999999999      2.0249999999999999
   191   1      28.349999999999998      18.224999999999998      2.0249999999999999
   192   1      30.374999999999996      18.224999999999998                       0
   193   1      32.399999999999999      16.199999999999999                       0
   194   1      34.424999999999997      16.199999999999999      2.0249999999999999
   195   1      32.399999999999999      18.224999999999998      2.0249999999999999
   196   1      34.424999999999997      18.224999999999998                       0
   197   1      36.449999999999996      16.199999999999999                       0
   198   1      38.474999999999994      16.199999999999999      2.0249999999999999
   199   1      36.449999999999996      18.224999999999998      2.0249999999999999
   200   1      38.474999999999994      18.224999999999998                       0
   201   1                       0                   20.25                       0
   202   1      2.0249999999999999                   20.25      2.0249999999999999
   203   1                       0      22.274999999999999      2.0249999999999999
   204   1      2.0249999999999999      22.274999999999999                       0
   205   1      4.0499999999999998                   20.25                       0
   206   1      6.0749999999999993                   20.25      2.0249999999999999
   207   1      4.0499999999999998      22.274999999999999      2.0249999999999999
   208   1      6.0749999999999993      22.274999999999999                       0
   209   1      8.0999999999999996                   20.25                       0
   210   1                  10.125                   20.25      2.0249999999999999
   211   1      8.0999999999999996      22.274999999999999      2.0249999999999999
   212   1                  10.125      22.274999999999999                       0
   213   1      12.149999999999999                   20.25                       0
   214   1      14.174999999999999                   20.25      2.0249999999999999
   215   1      12.149999999999999      22.274999999999999      2.0249999999999999
   216   1      14.174999999999999      22.274999999999999                       0
   217   1      16.199999999999999                   20.25                       0
   218   1      18.224999999999998                   20.25      2.0249999999999999
   219   1      16.199999999999999      22.274999999999999      2.0249999999999999
   220   1      18.224999999999998      22.274999999999999                       0
   221   1                   20.25                   20.25                       0
   222   1      22.274999999999999                   20.25      2.0249999999999999
   223   1                   20.25      22.274999999999999      2.0249999999999999
   224   1      22.274999999999999      22.274999999999999                       0
   225   1      24.299999999999997                   20.25                       0
   226   1      26.324999999999996                   20.25      2.0249999999999999
   227   1      24.299999999999997      22.274999999999999      2.0249999999999999
   228   1      26.324999999999996      22.274999999999999                       0
   229   1      28.349999999999998                   20.25                       0
   230   1      30.374999999999996                   20.25      2.0249999999999999
   231   1      28.349999999999998      22.274999999999999      2.0249999999999999
   232   1      30.374999999999996      22.274999999999999                       0
   233   1      32.399999999999999                   20.25                       0
   234   1      34.424999999999997                   20.25      2.0249999999999999
   235   1      32.399999999999999      22.274999999999999      2.0249999999999999
   236   1      34.424999999999997      22.274999999999999                       0
   237   1      36.449999999999996                   20.25                       0
   238   1      38.474999999999994                   20.25      2.0249999999999999
   239   1      36.449999999999996      22.274999999999999      2.0249999999999999
   240   1      38.474999999999994      22.274999999999999                       0
   241   1                       0      24.299999999999997                       0
   242   1      2.0249999999999999      24.299999999999997      2.0249999999999999
   243   1                       0      26.324999999999996      2.0249999999999999
   244   1      2.0249999999999999      26.324999999999996                       0
   245   1      4.0499999999999998      24.299999999999997                       0
   246   1      6.0749999999999993      24.299999999999997      2.0249999999999999
   247   1      4.0499999999999998      26.324999999999996      2.0249999999999999
   248   1      6.0749999999999993      26.324999999999996                       0
   249   1      8.0999999999999996      24.299999999999997                       0
   250   1                  10.125      24.299999999999997      2.0249999999999999
   251   1      8.0999999999999996      26.324999999999996      2.0249999999999999
   252   1                  10.125      26.324999999999996                       0
   253   1      12.149999999999999      24.299999999999997                       0
   254   1      14.174999999999999      24.299999999999997      2.0249999999999999
   255   1      12.149999999999999      26.324999999999996      2.0249999999999999
   256   1      14.174999999999999      26.324999999999996                       0
   257   1      16.199999999999999      24.299999999999997                       0
   258   1      18.224999999999998      24.299999999999997      2.0249999999999999
   259   1      16.199999999999999      26.324999999999996      2.0249999999999999
   260   1      18.224999999999998      26.324999999999996                       0
   261   1                   20.25      24.299999999999997                       0
   262   1      22.274999999999999      24.299999999999997      2.0249999999999999
   263   1                   20.25      26.324999999999996      2.0249999999999999
   264   1      22.274999999999999      26.324999999999996                       0
   265   1      24.299999999999997      24.299999999999997                       0
   266   1      26.324999999999996      24.299999999999997      2.0249999999999999
   267   1      24.299999999999997      26.324999999999996      2.0249999999999999
   268   1      26.324999999999996      26.324999999999996                       0
   269   1      28.349999999999998      24.299999999999997                       0
   270   1      30.374999999999996      24.299999999999997      2.0249999999999999
   271   1      28.349999999999998      26.324999999999996      2.0249999999999999
   272   1      30.374999999999996      26.324999999999996                       0
   273   1      32.399999999999999      24.299999999999997                       0
   274   1      34.424999999999997      24.299999999999997      2.0249999999999999
   275   1      32.399999999999999      26.324999999999996      2.0249999999999999
   276   1      34.424999999999997      26.324999999999996                       0
   277   1      36.449999999999996      24.299999999999997                       0
   278   1      38.474999999999994      24.299999999999997      2.0249999999999999
   279   1      36.449999999999996      26.324999999999996      2.0249999999999999
   280   1      38.474999999999994      26.324999999999996                       0
   281   1                       0      28.349999999999998                       0
   282   1      2.0249999999999999      28.349999999999998      2.0249999999999999
   283   1                       0      30.374999999999996      2.0249999999999999
   284   1      2.0249999999999999      30.374999999999996                       0
   285   1      4.0499999999999998      28.349999999999998                       0
   286   1      6.0749999999999993      28.349999999999998      2.0249999999999999
   287   1      4.0499999999999998      30.374999999999996      2.0249999999999999
   288   1      6.0749999999999993      30.374999999999996                       0
   289   1      8.0999999999999996      28.349999999999998                       0
   290   1                  10.125      28.349999999999998      2.0249999999999999
   291   1      8.0999999999999996      30.374999999999996      2.0249999999999999
   292   1                  10.125      30.374999999999996                       0
   293   1      12.149999999999999      28.349999999999998                       0
   294   1      14.174999999999999      28.349999999999998      2.0249999999999999
   295   1      12.149999999999999      30.374999999999996      2.0249999999999999
   296   1      14.174999999999999      30.374999999999996                       0
   297   1      16.199999999999999      28.349999999999998                       0
   298   1      18.224999999999998      28.349999999999998      2.0249999999999999
   299   1      16.199999999999999      30.374999999999996      2.0249999999999999
   300   1      18.224999999999998      30.374999999999996                       0
   301   1                   20.25      28.349999999999998                       0
   302   1      22.274999999999999      28.349999999999998      2.0249999999999999
   303   1                   20.25      30.374999999999996      2.0249999999999999
   304   1      22.274999999999999      30.374999999999996                       0
   305   1      24.299999999999997      28.349999999999998                       0
   306   1      26.324999999999996      28.349999999999998      2.0249999999999999
   307   1      24.299999999999997      30.374999999999996      2.0249999999999999
   308   1      26.324999999999996      30.374999999999996                       0
   309   1      28.349999999999998      28.349999999999998                       0
   310   1      30.374999999999996      28.349999999999998      2.0249999999999999
   311   1      28.349999999999998      30.374999999999996      2.0249999999999999
   312   1      30.374999999999996      30.374999999999996                       0
   313   1      32.399999999999999      28.349999999999998                       0
   314   1      34.424999999999997      28.349999999999998      2.0249999999999999
   315   1      32.399999999999999      30.374999999999996      2.0249999999999999
   316   1      34.424999999999997      30.374999999999996                       0
   317   1      36.449999999999996      28.349999999999998                       0
   318   1      38.474999999999994      28.349999999999998      2.0249999999999999
   319   1      36.449999999999996      30.374999999999996      2.0249999999999999
   320   1      38.474999999999994      30.374999999999996                       0
   321   1                       0      32.399999999999999                       0
   322   1      2.0249999999999999      32.399999999999999      2.0249999999999999
   323   1                       0      34.424999999999997      2.0249999999999999
   324   1      2.0249999999999999      34.424999999999997                       0
   325   1      4.0499999999999998      32.399999999999999                       0
   326   1      6.0749999999999993      32.399999999999999      2.0249999999999999
   327   1      4.0499999999999998      34.424999999999997      2.0249999999999999
   328   1      6.0749999999999993      34.424999999999997                       0
   329   1      8.0999999999999996      32.399999999999999                       0
   330   1                  10.125      32.399999999999999      2.0249999999999999
   331   1      8.0999999999999996      34.424999999999997      2.0249999999999999
   332   1                  10.125      34.424999999999997                       0
   333   1      12.149999999999999      32.399999999999999                       0
   334   1      14.174999999999999      32.399999999999999      2.0249999999999999
   335   1      12.149999999999999      34.424999999999997      2.0249999999999999
   336   1      14.174999999999999      34.424999999999997                       0
   337   1      16.199999999999999      32.399999999999999                       0
   338   1      18.224999999999998      32.399999999999999      2.0249999999999999
   339   1      16.199999999999999      34.424999999999997      2.0249999999999999
   340   1      18.224999999999998      34.424999999999997                       0
   341   1                   20.25      32.399999999999999                       0
   342   1      22.274999999999999      32.399999999999999      2.0249999999999999
   343   1                   20.25      34.424999999999997      2.0249999999999999
   344   1      22.274999999999999      34.424999999999997                       0
   345   1      24.299999999999997      32.399999999999999                       0
   346   1      26.324999999999996      32.399999999999999      2.0249999999999999
   347   1      24.299999999999997      34.424999999999997      2.0249999999999999
   348   1      26.324999999999996      34.424999999999997                       0
   349   1      28.349999999999998      32.399999999999999                       0
   350   1      30.374999999999996      32.399999999999999      2.0249999999999999
   351   1      28.349999999999998      34.424999999999997      2.0249999999999999
   352   1      30.374999999999996      34.424999999999997                       0
   353   1      32.399999999999999      32.399999999999999                       0
   354   1      34.424999999999997      32.399999999999999      2.0249999999999999
   355   1      32.399999999999999      34.424999999999997      2.0249999999999999
   356   1      34.424999999999997      34.424999999999997                       0
   357   1      36.449999999999996      32.399999999999999                       0
   358   1      38.474999999999994      32.399999999999999      2.0249999999999999