lattice/diamond/Si/defect/substitution/initial/Si_substitution.lmp (written by ASE) 

8000 	 atoms 
2  atom types
0.0      54.299999999999997  xlo xhi
0.0      54.299999999999997  ylo yhi
0.0      54.299999999999997  zlo zhi


Atoms 

     1   2                       0                       0                       0
     2   2      1.3574999999999999      1.3574999999999999      1.3574999999999999
     3   2      2.7149999999999999      2.7149999999999999                       0
     4   2      4.0724999999999998      4.0724999999999998      1.3574999999999999
     5   2      2.7149999999999999                       0      2.7149999999999999
     6   2                       0      2.7149999999999999      2.7149999999999999
     7   2      4.0724999999999998      1.3574999999999999      4.0724999999999998
     8   2      1.3574999999999999      4.0724999999999998      4.0724999999999998
     9   2      5.4299999999999997                       0                       0
    10   2      6.7874999999999996      1.3574999999999999      1.3574999999999999
    11   2      8.1449999999999996      2.7149999999999999                       0
    12   2      9.5024999999999995      4.0724999999999998      1.3574999999999999
    13   2      8.1449999999999996                       0      2.7149999999999999
    14   2      5.4299999999999997      2.7149999999999999      2.7149999999999999
    15   2      9.5024999999999995      1.3574999999999999      4.0724999999999998
    16   2      6.7874999999999996      4.0724999999999998      4.0724999999999998
    17   2      10.859999999999999                       0                       0
    18   2      12.217499999999999      1.3574999999999999      1.3574999999999999
    19   2      13.574999999999999      2.7149999999999999                       0
    20   2      14.932499999999999      4.0724999999999998      1.3574999999999999
    21   2      13.574999999999999                       0      2.7149999999999999
    22   2      10.859999999999999      2.7149999999999999      2.7149999999999999
    23   2      14.932499999999999      1.3574999999999999      4.0724999999999998
    24   2      12.217499999999999      4.0724999999999998      4.0724999999999998
    25   2      16.289999999999999                       0                       0
    26   2      17.647500000000001      1.3574999999999999      1.3574999999999999
    27   2      19.004999999999999      2.7149999999999999                       0
    28   2      20.362499999999997      4.0724999999999998      1.3574999999999999
    29   2      19.004999999999999                       0      2.7149999999999999
    30   2      16.289999999999999      2.7149999999999999      2.7149999999999999
    31   2      20.362499999999997      1.3574999999999999      4.0724999999999998
    32   2      17.647500000000001      4.0724999999999998      4.0724999999999998
    33   2      21.719999999999999                       0                       0
    34   2      23.077500000000001      1.3574999999999999      1.3574999999999999
    35   2      24.434999999999999      2.7149999999999999                       0
    36   2      25.792499999999997      4.0724999999999998      1.3574999999999999
    37   2      24.434999999999999                       0      2.7149999999999999
    38   2      21.719999999999999      2.7149999999999999      2.7149999999999999
    39   2      25.792499999999997      1.3574999999999999      4.0724999999999998
    40   2      23.077500000000001      4.0724999999999998      4.0724999999999998
    41   2      27.149999999999999                       0                       0
    42   2                 28.5075      1.3574999999999999      1.3574999999999999
    43   2      29.864999999999998      2.7149999999999999                       0
    44   2      31.222499999999997      4.0724999999999998      1.3574999999999999
    45   2      29.864999999999998                       0      2.7149999999999999
    46   2      27.149999999999999      2.7149999999999999      2.7149999999999999
    47   2      31.222499999999997      1.3574999999999999      4.0724999999999998
    48   2                 28.5075      4.0724999999999998      4.0724999999999998
    49   2      32.579999999999998                       0                       0
    50   2                 33.9375      1.3574999999999999      1.3574999999999999
    51   2      35.295000000000002      2.7149999999999999                       0
    52   2      36.652499999999996      4.0724999999999998      1.3574999999999999
    53   2      35.295000000000002                       0      2.7149999999999999
    54   2      32.579999999999998      2.7149999999999999      2.7149999999999999
    55   2      36.652499999999996      1.3574999999999999      4.0724999999999998
    56   2                 33.9375      4.0724999999999998      4.0724999999999998
    57   2      38.009999999999998                       0                       0
    58   2                 39.3675      1.3574999999999999      1.3574999999999999
    59   2      40.724999999999994      2.7149999999999999                       0
    60   2      42.082499999999996      4.0724999999999998      1.3574999999999999
    61   2      40.724999999999994                       0      2.7149999999999999
    62   2      38.009999999999998      2.7149999999999999      2.7149999999999999
    63   2      42.082499999999996      1.3574999999999999      4.0724999999999998
    64   2                 39.3675      4.0724999999999998      4.0724999999999998
    65   2      43.439999999999998                       0                       0
    66   2      44.797499999999999      1.3574999999999999      1.3574999999999999
    67   2      46.155000000000001      2.7149999999999999                       0
    68   2      47.512499999999996      4.0724999999999998      1.3574999999999999
    69   1      46.155000000000001                       0      2.7149999999999999
    70   2      43.439999999999998      2.7149999999999999      2.7149999999999999
    71   2      47.512499999999996      1.3574999999999999      4.0724999999999998
    72   2      44.797499999999999      4.0724999999999998      4.0724999999999998
    73   2      48.869999999999997                       0                       0
    74   2      50.227499999999999      1.3574999999999999      1.3574999999999999
    75   2      51.584999999999994      2.7149999999999999                       0
    76   2      52.942499999999995      4.0724999999999998      1.3574999999999999
    77   2      51.584999999999994                       0      2.7149999999999999
    78   2      48.869999999999997      2.7149999999999999      2.7149999999999999
    79   2      52.942499999999995      1.3574999999999999      4.0724999999999998
    80   2      50.227499999999999      4.0724999999999998      4.0724999999999998
    81   2                       0      5.4299999999999997                       0
    82   2      1.3574999999999999      6.7874999999999996      1.3574999999999999
    83   2      2.7149999999999999      8.1449999999999996                       0
    84   2      4.0724999999999998      9.5024999999999995      1.3574999999999999
    85   2      2.7149999999999999      5.4299999999999997      2.7149999999999999
    86   2                       0      8.1449999999999996      2.7149999999999999
    87   2      4.0724999999999998      6.7874999999999996      4.0724999999999998
    88   2      1.3574999999999999      9.5024999999999995      4.0724999999999998
    89   2      5.4299999999999997      5.4299999999999997                       0
    90   2      6.7874999999999996      6.7874999999999996      1.3574999999999999
    91   2      8.1449999999999996      8.1449999999999996                       0
    92   2      9.5024999999999995      9.5024999999999995      1.3574999999999999
    93   2      8.1449999999999996      5.4299999999999997      2.7149999999999999
    94   2      5.4299999999999997      8.1449999999999996      2.7149999999999999
    95   2      9.5024999999999995      6.7874999999999996      4.0724999999999998
    96   2      6.7874999999999996      9.5024999999999995      4.0724999999999998
    97   2      10.859999999999999      5.4299999999999997                       0
    98   2      12.217499999999999      6.7874999999999996      1.3574999999999999
    99   2      13.574999999999999      8.1449999999999996                       0
   100   2      14.932499999999999      9.5024999999999995      1.3574999999999999
   101   2      13.574999999999999      5.4299999999999997      2.7149999999999999
   102   2      10.859999999999999      8.1449999999999996      2.7149999999999999
   103   2      14.932499999999999      6.7874999999999996      4.0724999999999998
   104   2      12.217499999999999      9.5024999999999995      4.0724999999999998
   105   2      16.289999999999999      5.4299999999999997                       0
   106   2      17.647500000000001      6.7874999999999996      1.3574999999999999
   107   2      19.004999999999999      8.1449999999999996                       0
   108   2      20.362499999999997      9.5024999999999995      1.3574999999999999
   109   2      19.004999999999999      5.4299999999999997      2.7149999999999999
   110   2      16.289999999999999      8.1449999999999996      2.7149999999999999
   111   2      20.362499999999997      6.7874999999999996      4.0724999999999998
   112   2      17.647500000000001      9.5024999999999995      4.0724999999999998
   113   2      21.719999999999999      5.4299999999999997                       0
   114   2      23.077500000000001      6.7874999999999996      1.3574999999999999
   115   2      24.434999999999999      8.1449999999999996                       0
   116   2      25.792499999999997      9.5024999999999995      1.3574999999999999
   117   2      24.434999999999999      5.4299999999999997      2.7149999999999999
   118   2      21.719999999999999      8.1449999999999996      2.7149999999999999
   119   2      25.792499999999997      6.7874999999999996      4.0724999999999998
   120   2      23.077500000000001      9.5024999999999995      4.0724999999999998
   121   2      27.149999999999999      5.4299999999999997                       0
   122   2                 28.5075      6.7874999999999996      1.3574999999999999
   123   2      29.864999999999998      8.1449999999999996                       0
   124   2      31.222499999999997      9.5024999999999995      1.3574999999999999
   125   2      29.864999999999998      5.4299999999999997      2.7149999999999999
   126   2      27.149999999999999      8.1449999999999996      2.7149999999999999
   127   2      31.222499999999997      6.7874999999999996      4.0724999999999998
   128   2                 28.5075      9.5024999999999995      4.0724999999999998
   129   2      32.579999999999998      5.4299999999999997                       0
   130   2                 33.9375      6.7874999999999996      1.3574999999999999
   131   2      35.295000000000002      8.1449999999999996                       0
   132   2      36.652499999999996      9.5024999999999995      1.3574999999999999
   133   2      35.295000000000002      5.4299999999999997      2.7149999999999999
   134   2      32.579999999999998      8.1449999999999996      2.7149999999999999
   135   2      36.652499999999996      6.7874999999999996      4.0724999999999998
   136   2                 33.9375      9.5024999999999995      4.0724999999999998
   137   2      38.009999999999998      5.4299999999999997                       0
   138   2                 39.3675      6.7874999999999996      1.3574999999999999
   139   2      40.724999999999994      8.1449999999999996                       0
   140   2      42.082499999999996      9.5024999999999995      1.3574999999999999
   141   2      40.724999999999994      5.4299999999999997      2.7149999999999999
   142   2      38.009999999999998      8.1449999999999996      2.7149999999999999
   143   2      42.082499999999996      6.7874999999999996      4.0724999999999998
   144   2                 39.3675      9.5024999999999995      4.0724999999999998
   145   2      43.439999999999998      5.4299999999999997                       0
   146   1      44.797499999999999      6.7874999999999996      1.3574999999999999
   147   2      46.155000000000001      8.1449999999999996                       0
   148   2      47.512499999999996      9.5024999999999995      1.3574999999999999
   149   2      46.155000000000001      5.4299999999999997      2.7149999999999999
   150   2      43.439999999999998      8.1449999999999996      2.7149999999999999
   151   2      47.512499999999996      6.7874999999999996      4.0724999999999998
   152   2      44.797499999999999      9.5024999999999995      4.0724999999999998
   153   2      48.869999999999997      5.4299999999999997                       0
   154   2      50.227499999999999      6.7874999999999996      1.3574999999999999
   155   2      51.584999999999994      8.1449999999999996                       0
   156   2      52.942499999999995      9.5024999999999995      1.3574999999999999
   157   2      51.584999999999994      5.4299999999999997      2.7149999999999999
   158   2      48.869999999999997      8.1449999999999996      2.7149999999999999
   159   2      52.942499999999995      6.7874999999999996      4.0724999999999998
   160   2      50.227499999999999      9.5024999999999995      4.0724999999999998
   161   2                       0      10.859999999999999                       0
   162   2      1.3574999999999999      12.217499999999999      1.3574999999999999
   163   2      2.7149999999999999      13.574999999999999                       0
   164   2      4.0724999999999998      14.932499999999999      1.3574999999999999
   165   2      2.7149999999999999      10.859999999999999      2.7149999999999999
   166   2                       0      13.574999999999999      2.7149999999999999
   167   2      4.0724999999999998      12.217499999999999      4.0724999999999998
   168   2      1.3574999999999999      14.932499999999999      4.0724999999999998
   169   2      5.4299999999999997      10.859999999999999                       0
   170   1      6.7874999999999996      12.217499999999999      1.3574999999999999
   171   2      8.1449999999999996      13.574999999999999                       0
   172   2      9.5024999999999995      14.932499999999999      1.3574999999999999
   173   2      8.1449999999999996      10.859999999999999      2.7149999999999999
   174   2      5.4299999999999997      13.574999999999999      2.7149999999999999
   175   2      9.5024999999999995      12.217499999999999      4.0724999999999998
   176   2      6.7874999999999996      14.932499999999999      4.0724999999999998
   177   2      10.859999999999999      10.859999999999999                       0
   178   2      12.217499999999999      12.217499999999999      1.3574999999999999
   179   2      13.574999999999999      13.574999999999999                       0
   180   2      14.932499999999999      14.932499999999999      1.3574999999999999
   181   2      13.574999999999999      10.859999999999999      2.7149999999999999
   182   2      10.859999999999999      13.574999999999999      2.7149999999999999
   183   2      14.932499999999999      12.217499999999999      4.0724999999999998
   184   2      12.217499999999999      14.932499999999999      4.0724999999999998
   185   2      16.289999999999999      10.859999999999999                       0
   186   2      17.647500000000001      12.217499999999999      1.3574999999999999
   187   2      19.004999999999999      13.574999999999999                       0
   188   2      20.362499999999997      14.932499999999999      1.3574999999999999
   189   2      19.004999999999999      10.859999999999999      2.7149999999999999
   190   2      16.289999999999999      13.574999999999999      2.7149999999999999
   191   2      20.362499999999997      12.217499999999999      4.0724999999999998
   192   2      17.647500000000001      14.932499999999999      4.0724999999999998
   193   2      21.719999999999999      10.859999999999999                       0
   194   2      23.077500000000001      12.217499999999999      1.3574999999999999
   195   2      24.434999999999999      13.574999999999999                       0
   196   2      25.792499999999997      14.932499999999999      1.3574999999999999
   197   2      24.434999999999999      10.859999999999999      2.7149999999999999
   198   2      21.719999999999999      13.574999999999999      2.7149999999999999
   199   2      25.792499999999997      12.217499999999999      4.0724999999999998
   200   2      23.077500000000001      14.932499999999999      4.0724999999999998
   201   2      27.149999999999999      10.859999999999999                       0
   202   2                 28.5075      12.217499999999999      1.3574999999999999
   203   2      29.864999999999998      13.574999999999999                       0
   204   2      31.222499999999997      14.932499999999999      1.3574999999999999
   205   2      29.864999999999998      10.859999999999999      2.7149999999999999
   206   2      27.149999999999999      13.574999999999999      2.7149999999999999
   207   2      31.222499999999997      12.217499999999999      4.0724999999999998
   208   2                 28.5075      14.932499999999999      4.0724999999999998
   209   2      32.579999999999998      10.859999999999999                       0
   210   2                 33.9375      12.217499999999999      1.3574999999999999
   211   2      35.295000000000002      13.574999999999999                       0
   212   2      36.652499999999996      14.932499999999999      1.3574999999999999
   213   2      35.295000000000002      10.859999999999999      2.7149999999999999
   214   2      32.579999999999998      13.574999999999999      2.7149999999999999
   215   2      36.652499999999996      12.217499999999999      4.0724999999999998
   216   2                 33.9375      14.932499999999999      4.0724999999999998
   217   2      38.009999999999998      10.859999999999999                       0
   218   2                 39.3675      12.217499999999999      1.3574999999999999
   219   2      40.724999999999994      13.574999999999999                       0
   220   2      42.082499999999996      14.932499999999999      1.3574999999999999
   221   2      40.724999999999994      10.859999999999999      2.7149999999999999
   222   2      38.009999999999998      13.574999999999999      2.7149999999999999
   223   2      42.082499999999996      12.217499999999999      4.0724999999999998
   224   2                 39.3675      14.932499999999999      4.0724999999999998
   225   2      43.439999999999998      10.859999999999999                       0
   226   2      44.797499999999999      12.217499999999999      1.3574999999999999
   227   2      46.155000000000001      13.574999999999999                       0
   228   2      47.512499999999996      14.932499999999999      1.3574999999999999
   229   2      46.155000000000001      10.859999999999999      2.7149999999999999
   230   2      43.439999999999998      13.574999999999999      2.7149999999999999
   231   2      47.512499999999996      12.217499999999999      4.0724999999999998
   232   2      44.797499999999999      14.932499999999999      4.0724999999999998
   233   2      48.869999999999997      10.859999999999999                       0
   234   2      50.227499999999999      12.217499999999999      1.3574999999999999
   235   2      51.584999999999994      13.574999999999999                       0
   236   2      52.942499999999995      14.932499999999999      1.3574999999999999
   237   2      51.584999999999994      10.859999999999999      2.7149999999999999
   238   2      48.869999999999997      13.574999999999999      2.7149999999999999
   239   2      52.942499999999995      12.217499999999999      4.0724999999999998
   240   2      50.227499999999999      14.932499999999999      4.0724999999999998
   241   2                       0      16.289999999999999                       0
   242   2      1.3574999999999999      17.647500000000001      1.3574999999999999
   243   2      2.7149999999999999      19.004999999999999                       0
   244   2      4.0724999999999998      20.362499999999997      1.3574999999999999
   245   2      2.7149999999999999      16.289999999999999      2.7149999999999999
   246   2                       0      19.004999999999999      2.7149999999999999
   247   2      4.0724999999999998      17.647500000000001      4.0724999999999998
   248   2      1.3574999999999999      20.362499999999997      4.0724999999999998
   249   2      5.4299999999999997      16.289999999999999                       0
   250   2      6.7874999999999996      17.647500000000001      1.3574999999999999
   251   1      8.1449999999999996      19.004999999999999                       0
   252   2      9.5024999999999995      20.362499999999997      1.3574999999999999
   253   2      8.1449999999999996      16.289999999999999      2.7149999999999999
   254   2      5.4299999999999997      19.004999999999999      2.7149999999999999
   255   2      9.5024999999999995      17.647500000000001      4.0724999999999998
   256   2      6.7874999999999996      20.362499999999997      4.0724999999999998
   257   2      10.859999999999999      16.289999999999999                       0
   258   2      12.217499999999999      17.647500000000001      1.3574999999999999
   259   2      13.574999999999999      19.004999999999999                       0
   260   2      14.932499999999999      20.362499999999997      1.3574999999999999
   261   2      13.574999999999999      16.289999999999999      2.7149999999999999
   262   2      10.859999999999999      19.004999999999999      2.7149999999999999
   263   2      14.932499999999999      17.647500000000001      4.0724999999999998
   264   2      12.217499999999999      20.362499999999997      4.0724999999999998
   265   2      16.289999999999999      16.289999999999999                       0
   266   2      17.647500000000001      17.647500000000001      1.3574999999999999
   267   2      19.004999999999999      19.004999999999999                       0
   268   2      20.362499999999997      20.362499999999997      1.3574999999999999
   269   2      19.004999999999999      16.289999999999999      2.7149999999999999
   270   2      16.289999999999999      19.004999999999999      2.7149999999999999
   271   2      20.362499999999997      17.647500000000001      4.0724999999999998
   272   2      17.647500000000001      20.362499999999997      4.0724999999999998
   273   2      21.719999999999999      16.289999999999999                       0
   274   2      23.077500000000001      17.647500000000001      1.3574999999999999
   275   2      24.434999999999999      19.004999999999999                       0
   276   2      25.792499999999997      20.362499999999997      1.3574999999999999
   277   2      24.434999999999999      16.289999999999999      2.7149999999999999
   278   2      21.719999999999999      19.004999999999999      2.7149999999999999
   279   2      25.792499999999997      17.647500000000001      4.0724999999999998
   280   2      23.077500000000001      20.362499999999997      4.0724999999999998
   281   2      27.149999999999999      16.289999999999999                       0
   282   2                 28.5075      17.647500000000001      1.3574999999999999
   283   2      29.864999999999998      19.004999999999999                       0
   284   2      31.222499999999997      20.362499999999997      1.3574999999999999
   285   2      29.864999999999998      16.289999999999999      2.7149999999999999
   286   2      27.149999999999999      19.004999999999999      2.7149999999999999
   287   2      31.222499999999997      17.647500000000001      4.0724999999999998
   288   2                 28.5075      20.362499999999997      4.0724999999999998
   289   1      32.579999999999998      16.289999999999999                       0
   290   2                 33.9375      17.647500000000001      1.3574999999999999
   291   2      35.295000000000002      19.004999999999999                       0
   292   2      36.652499999999996      20.362499999999997      1.3574999999999999
   293   2      35.295000000000002      16.289999999999999      2.7149999999999999
   294   2      32.579999999999998      19.004999999999999      2.7149999999999999
   295   2      36.652499999999996      17.647500000000001      4.0724999999999998
   296   2                 33.9375      20.362499999999997      4.0724999999999998
   297   2      38.009999999999998      16.289999999999999                       0
   298   2                 39.3675      17.647500000000001      1.3574999999999999
   299   2      40.724999999999994      19.004999999999999                       0
   300   2      42.082499999999996      20.362499999999997      1.3574999999999999
   301   2      40.724999999999994      16.289999999999999      2.7149999999999999
   302   2      38.009999999999998      19.004999999999999      2.7149999999999999
   303   2      42.082499999999996      17.647500000000001      4.0724999999999998
   304   2                 39.3675      20.362499999999997      4.0724999999999998
   305   2      43.439999999999998      16.289999999999999                       0
   306   2      44.797499999999999      17.647500000000001      1.3574999999999999
   307   2      46.155000000000001      19.004999999999999                       0
   308   2      47.512499999999996      20.362499999999997      1.3574999999999999
   309   2      46.155000000000001      16.289999999999999      2.7149999999999999
   310   1      43.439999999999998      19.004999999999999      2.7149999999999999
   311   2      47.512499999999996      17.647500000000001      4.0724999999999998
   312   2      44.797499999999999      20.362499999999997      4.0724999999999998
   313   2      48.869999999999997      16.289999999999999                       0
   314   2      50.227499999999999      17.647500000000001      1.3574999999999999
   315   2      51.584999999999994      19.004999999999999                       0
   316   2      52.942499999999995      20.362499999999997      1.3574999999999999
   317   2      51.584999999999994      16.289999999999999      2.7149999999999999
   318   2      48.869999999999997      19.004999999999999      2.7149999999999999
   319   2      52.942499999999995      17.647500000000001      4.0724999999999998
   320   2      50.227499999999999      20.362499999999997      4.0724999999999998
   321   2                       0      21.719999999999999                       0
   322   2      1.3574999999999999      23.077500000000001      1.3574999999999999
   323   2      2.7149999999999999      24.434999999999999                       0
   324   2      4.0724999999999998      25.792499999999997      1.3574999999999999
   325   2      2.7149999999999999      21.719999999999999      2.7149999999999999
   326   2                       0      24.434999999999999      2.7149999999999999
   327   2      4.0724999999999998      23.077500000000001      4.0724999999999998
   328   2      1.3574999999999999      25.792499999999997      4.0724999999999998
   329   2      5.4299999999999997      21.719999999999999                       0
   330   2      6.7874999999999996      23.077500000000001      1.3574999999999999
   331   2      8.1449999999999996      24.434999999999999                       0
   332   2      9.5024999999999995      25.792499999999997      1.3574999999999999
   333   2      8.1449999999999996      21.719999999999999      2.7149999999999999
   334   2      5.4299999999999997      24.434999999999999      2.7149999999999999
   335   2      9.5024999999999995      23.077500000000001      4.0724999999999998
   336   2      6.7874999999999996      25.792499999999997      4.0724999999999998
   337   2      10.859999999999999      21.719999999999999                       0
   338   2      12.217499999999999      23.077500000000001      1.3574999999999999
   339   2      13.574999999999999      24.434999999999999                       0
   340   2      14.932499999999999      25.792499999999997      1.3574999999999999
   341   2      13.574999999999999      21.719999999999999      2.7149999999999999
   342   2      10.859999999999999      24.434999999999999      2.7149999999999999
   343   2      14.932499999999999      23.077500000000001      4.0724999999999998
   344   2      12.217499999999999      25.792499999999997      4.0724999999999998
   345   2      16.289999999999999      21.719999999999999                       0
   346   2      17.647500000000001      23.077500000000001      1.3574999999999999
   347   2      19.004999999999999      24.434999999999999                       0
   348   2      20.362499999999997      25.792499999999997      1.3574999999999999
   349   2      19.004999999999999      21.719999999999999      2.7149999999999999
   350   2      16.289999999999999      24.434999999999999      2.7149999999999999
   351   2      20.362499999999997      23.077500000000001      4.0724999999999998
   352   2      17.647500000000001      25.792499999999997      4.0724999999999998
   353   2      21.719999999999999      21.719999999999999                       0
   354   2      23.077500000000001      23.077500000000001      1.3574999999999999
   355   2      24.434999999999999      24.434999999999999                       0
   356   2      25.792499999999997      25.792499999999997      1.3574999999999999
   357   2      24.434999999999999      21.719999999999999      2.7149999999999999
   358   2      21.719999999999999      24.434999999999999      2.7149999999999999