lattice/fcc/Al/defect/vacancy/initial/Al_vacancy.lmp (written by ASE) 

3960 	 atoms 
1  atom types
0.0                    40.5  xlo xhi
0.0                    40.5  ylo yhi
0.0                    40.5  zlo zhi


Atoms 

     1   1                       0                       0                       0
     2   1      2.0249999999999999                       0      2.0249999999999999
     3   1                       0      2.0249999999999999      2.0249999999999999
     4   1      2.0249999999999999      2.0249999999999999                       0
     5   1      4.0499999999999998                       0                       0
     6   1      6.0749999999999993                       0      2.0249999999999999
     7   1      4.0499999999999998      2.0249999999999999      2.0249999999999999
     8   1      6.0749999999999993      2.0249999999999999                       0
     9   1                  10.125                       0      2.0249999999999999
    10   1      8.0999999999999996      2.0249999999999999      2.0249999999999999
    11   1                  10.125      2.0249999999999999                       0
    12   1      12.149999999999999                       0                       0
    13   1      14.174999999999999                       0      2.0249999999999999
    14   1      12.149999999999999      2.0249999999999999      2.0249999999999999
    15   1      14.174999999999999      2.0249999999999999                       0
    16   1      16.199999999999999                       0                       0
    17   1      18.224999999999998                       0      2.0249999999999999
    18   1      16.199999999999999      2.0249999999999999      2.0249999999999999
    19   1      18.224999999999998      2.0249999999999999                       0
    20   1                   20.25                       0                       0
    21   1      22.274999999999999                       0      2.0249999999999999
    22   1                   20.25      2.0249999999999999      2.0249999999999999
    23   1      22.274999999999999      2.0249999999999999                       0
    24   1      24.299999999999997                       0                       0
    25   1      26.324999999999996                       0      2.0249999999999999
    26   1      24.299999999999997      2.0249999999999999      2.0249999999999999
    27   1      26.324999999999996      2.0249999999999999                       0
    28   1      28.349999999999998                       0                       0
    29   1      30.374999999999996                       0      2.0249999999999999
    30   1      28.349999999999998      2.0249999999999999      2.0249999999999999
    31   1      30.374999999999996      2.0249999999999999                       0
    32   1      32.399999999999999                       0                       0
    33   1      34.424999999999997                       0      2.0249999999999999
    34   1      32.399999999999999      2.0249999999999999      2.0249999999999999
    35   1      34.424999999999997      2.0249999999999999                       0
    36   1      36.449999999999996                       0                       0
    37   1      38.474999999999994                       0      2.0249999999999999
    38   1      36.449999999999996      2.0249999999999999      2.0249999999999999
    39   1      38.474999999999994      2.0249999999999999                       0
    40   1                       0      4.0499999999999998                       0
    41   1      2.0249999999999999      4.0499999999999998      2.0249999999999999
    42   1                       0      6.0749999999999993      2.0249999999999999
    43   1      2.0249999999999999      6.0749999999999993                       0
    44   1      4.0499999999999998      4.0499999999999998                       0
    45   1      6.0749999999999993      4.0499999999999998      2.0249999999999999
    46   1      4.0499999999999998      6.0749999999999993      2.0249999999999999
    47   1      6.0749999999999993      6.0749999999999993                       0
    48   1      8.0999999999999996      4.0499999999999998                       0
    49   1                  10.125      4.0499999999999998      2.0249999999999999
    50   1      8.0999999999999996      6.0749999999999993      2.0249999999999999
    51   1                  10.125      6.0749999999999993                       0
    52   1      12.149999999999999      4.0499999999999998                       0
    53   1      14.174999999999999      4.0499999999999998      2.0249999999999999
    54   1      12.149999999999999      6.0749999999999993      2.0249999999999999
    55   1      14.174999999999999      6.0749999999999993                       0
    56   1      16.199999999999999      4.0499999999999998                       0
    57   1      18.224999999999998      4.0499999999999998      2.0249999999999999
    58   1      16.199999999999999      6.0749999999999993      2.0249999999999999
    59   1      18.224999999999998      6.0749999999999993                       0
    60   1                   20.25      4.0499999999999998                       0
    61   1      22.274999999999999      4.0499999999999998      2.0249999999999999
    62   1                   20.25      6.0749999999999993      2.0249999999999999
    63   1      22.274999999999999      6.0749999999999993                       0
    64   1      24.299999999999997      4.0499999999999998                       0
    65   1      26.324999999999996      4.0499999999999998      2.0249999999999999
    66   1      24.299999999999997      6.0749999999999993      2.0249999999999999
    67   1      26.324999999999996      6.0749999999999993                       0
    68   1      28.349999999999998      4.0499999999999998                       0
    69   1      30.374999999999996      4.0499999999999998      2.0249999999999999
    70   1      28.349999999999998      6.0749999999999993      2.0249999999999999
    71   1      30.374999999999996      6.0749999999999993                       0
    72   1      32.399999999999999      4.0499999999999998                       0
    73   1      34.424999999999997      4.0499999999999998      2.0249999999999999
    74   1      32.399999999999999      6.0749999999999993      2.0249999999999999
    75   1      34.424999999999997      6.0749999999999993                       0
    76   1      36.449999999999996      4.0499999999999998                       0
    77   1      38.474999999999994      4.0499999999999998      2.0249999999999999
    78   1      36.449999999999996      6.0749999999999993      2.0249999999999999
    79   1      38.474999999999994      6.0749999999999993                       0
    80   1                       0      8.0999999999999996                       0
    81   1      2.0249999999999999      8.0999999999999996      2.0249999999999999
    82   1                       0                  10.125      2.0249999999999999
    83   1      2.0249999999999999                  10.125                       0
    84   1      4.0499999999999998      8.0999999999999996                       0
    85   1      6.0749999999999993      8.0999999999999996      2.0249999999999999
    86   1      4.0499999999999998                  10.125      2.0249999999999999
    87   1      6.0749999999999993                  10.125                       0
    88   1      8.0999999999999996      8.0999999999999996                       0
    89   1                  10.125      8.0999999999999996      2.0249999999999999
    90   1      8.0999999999999996                  10.125      2.0249999999999999
    91   1      12.149999999999999      8.0999999999999996                       0
    92   1      14.174999999999999      8.0999999999999996      2.0249999999999999
    93   1      12.149999999999999                  10.125      2.0249999999999999
    94   1      14.174999999999999                  10.125                       0
    95   1      16.199999999999999      8.0999999999999996                       0
    96   1      18.224999999999998      8.0999999999999996      2.0249999999999999
    97   1      16.199999999999999                  10.125      2.0249999999999999
    98   1      18.224999999999998                  10.125                       0
    99   1                   20.25      8.0999999999999996                       0
   100   1      22.274999999999999      8.0999999999999996      2.0249999999999999
   101   1                   20.25                  10.125      2.0249999999999999
   102   1      22.274999999999999                  10.125                       0
   103   1      24.299999999999997      8.0999999999999996                       0
   104   1      26.324999999999996      8.0999999999999996      2.0249999999999999
   105   1      24.299999999999997                  10.125      2.0249999999999999
   106   1      26.324999999999996                  10.125                       0
   107   1      28.349999999999998      8.0999999999999996                       0
   108   1      30.374999999999996      8.0999999999999996      2.0249999999999999
   109   1      28.349999999999998                  10.125      2.0249999999999999
   110   1      30.374999999999996                  10.125                       0
   111   1      32.399999999999999      8.0999999999999996                       0
   112   1      34.424999999999997      8.0999999999999996      2.0249999999999999
   113   1      32.399999999999999                  10.125      2.0249999999999999
   114   1      34.424999999999997                  10.125                       0
   115   1      38.474999999999994      8.0999999999999996      2.0249999999999999
   116   1      36.449999999999996                  10.125      2.0249999999999999
   117   1      38.474999999999994                  10.125                       0
   118   1                       0      12.149999999999999                       0
   119   1      2.0249999999999999      12.149999999999999      2.0249999999999999
   120   1                       0      14.174999999999999      2.0249999999999999
   121   1      2.0249999999999999      14.174999999999999                       0
   122   1      4.0499999999999998      12.149999999999999                       0
   123   1      4.0499999999999998      14.174999999999999      2.0249999999999999
   124   1      6.0749999999999993      14.174999999999999                       0
   125   1      8.0999999999999996      12.149999999999999                       0
   126   1                  10.125      12.149999999999999      2.0249999999999999
   127   1      8.0999999999999996      14.174999999999999      2.0249999999999999
   128   1                  10.125      14.174999999999999                       0
   129   1      12.149999999999999      12.149999999999999                       0
   130   1      14.174999999999999      12.149999999999999      2.0249999999999999
   131   1      12.149999999999999      14.174999999999999      2.0249999999999999
   132   1      14.174999999999999      14.174999999999999                       0
   133   1      16.199999999999999      12.149999999999999                       0
   134   1      18.224999999999998      12.149999999999999      2.0249999999999999
   135   1      16.199999999999999      14.174999999999999      2.0249999999999999
   136   1      18.224999999999998      14.174999999999999                       0
   137   1                   20.25      12.149999999999999                       0
   138   1      22.274999999999999      12.149999999999999      2.0249999999999999
   139   1                   20.25      14.174999999999999      2.0249999999999999
   140   1      22.274999999999999      14.174999999999999                       0
   141   1      24.299999999999997      12.149999999999999                       0
   142   1      26.324999999999996      12.149999999999999      2.0249999999999999
   143   1      24.299999999999997      14.174999999999999      2.0249999999999999
   144   1      26.324999999999996      14.174999999999999                       0
   145   1      28.349999999999998      12.149999999999999                       0
   146   1      30.374999999999996      12.149999999999999      2.0249999999999999
   147   1      28.349999999999998      14.174999999999999      2.0249999999999999
   148   1      30.374999999999996      14.174999999999999                       0
   149   1      32.399999999999999      12.149999999999999                       0
   150   1      34.424999999999997      12.149999999999999      2.0249999999999999
   151   1      32.399999999999999      14.174999999999999      2.0249999999999999
   152   1      34.424999999999997      14.174999999999999                       0
   153   1      36.449999999999996      12.149999999999999                       0
   154   1      38.474999999999994      12.149999999999999      2.0249999999999999
   155   1      36.449999999999996      14.174999999999999      2.0249999999999999
   156   1      38.474999999999994      14.174999999999999                       0
   157   1                       0      16.199999999999999                       0
   158   1      2.0249999999999999      16.199999999999999      2.0249999999999999
   159   1                       0      18.224999999999998      2.0249999999999999
   160   1      2.0249999999999999      18.224999999999998                       0
   161   1      4.0499999999999998      16.199999999999999                       0
   162   1      6.0749999999999993      16.199999999999999      2.0249999999999999
   163   1      4.0499999999999998      18.224999999999998      2.0249999999999999
   164   1      6.0749999999999993      18.224999999999998                       0
   165   1      8.0999999999999996      16.199999999999999                       0
   166   1                  10.125      16.199999999999999      2.0249999999999999
   167   1      8.0999999999999996      18.224999999999998      2.0249999999999999
   168   1                  10.125      18.224999999999998                       0
   169   1      12.149999999999999      16.199999999999999                       0
   170   1      14.174999999999999      16.199999999999999      2.0249999999999999
   171   1      12.149999999999999      18.224999999999998      2.0249999999999999
   172   1      14.174999999999999      18.224999999999998                       0
   173   1      16.199999999999999      16.199999999999999                       0
   174   1      18.224999999999998      16.199999999999999      2.0249999999999999
   175   1      16.199999999999999      18.224999999999998      2.0249999999999999
   176   1      18.224999999999998      18.224999999999998                       0
   177   1                   20.25      16.199999999999999                       0
   178   1      22.274999999999999      16.199999999999999      2.0249999999999999
   179   1                   20.25      18.224999999999998      2.0249999999999999
   180   1      22.274999999999999      18.224999999999998                       0
   181   1      24.299999999999997      16.199999999999999                       0
   182   1      26.324999999999996      16.199999999999999      2.0249999999999999
   183   1      24.299999999999997      18.224999999999998      2.0249999999999999
   184   1      26.324999999999996      18.224999999999998                       0
   185   1      28.349999999999998      16.199999999999999                       0
   186   1      30.374999999999996      16.199999999999999      2.0249999999999999
   187   1      28.349999999999998      18.224999999999998      2.0249999999999999
   188   1      30.374999999999996      18.224999999999998                       0
   189   1      32.399999999999999      16.199999999999999                       0
   190   1      34.424999999999997      16.199999999999999      2.0249999999999999
   191   1      32.399999999999999      18.224999999999998      2.0249999999999999
   192   1      34.424999999999997      18.224999999999998                       0
   193   1      36.449999999999996      16.199999999999999                       0
   194   1      38.474999999999994      16.199999999999999      2.0249999999999999
   195   1      36.449999999999996      18.224999999999998      2.0249999999999999
   196   1      38.474999999999994      18.224999999999998                       0
   197   1                       0                   20.25                       0
   198   1      2.0249999999999999                   20.25      2.0249999999999999
   199   1                       0      22.274999999999999      2.0249999999999999
   200   1      2.0249999999999999      22.274999999999999                       0
   201   1      4.0499999999999998                   20.25                       0
   202   1      6.0749999999999993                   20.25      2.0249999999999999
   203   1      4.0499999999999998      22.274999999999999      2.0249999999999999
   204   1      6.0749999999999993      22.274999999999999                       0
   205   1      8.0999999999999996                   20.25                       0
   206   1                  10.125                   20.25      2.0249999999999999
   207   1      8.0999999999999996      22.274999999999999      2.0249999999999999
   208   1                  10.125      22.274999999999999                       0
   209   1      12.149999999999999                   20.25                       0
   210   1      14.174999999999999                   20.25      2.0249999999999999
   211   1      12.149999999999999      22.274999999999999      2.0249999999999999
   212   1      14.174999999999999      22.274999999999999                       0
   213   1      16.199999999999999                   20.25                       0
   214   1      18.224999999999998                   20.25      2.0249999999999999
   215   1      16.199999999999999      22.274999999999999      2.0249999999999999
   216   1      18.224999999999998      22.274999999999999                       0
   217   1                   20.25                   20.25                       0
   218   1      22.274999999999999                   20.25      2.0249999999999999
   219   1                   20.25      22.274999999999999      2.0249999999999999
   220   1      22.274999999999999      22.274999999999999                       0
   221   1      24.299999999999997                   20.25                       0
   222   1      26.324999999999996                   20.25      2.0249999999999999
   223   1      24.299999999999997      22.274999999999999      2.0249999999999999
   224   1      26.324999999999996      22.274999999999999                       0
   225   1      28.349999999999998                   20.25                       0
   226   1      30.374999999999996                   20.25      2.0249999999999999
   227   1      28.349999999999998      22.274999999999999      2.0249999999999999
   228   1      30.374999999999996      22.274999999999999                       0
   229   1      32.399999999999999                   20.25                       0
   230   1      34.424999999999997                   20.25      2.0249999999999999
   231   1      32.399999999999999      22.274999999999999      2.0249999999999999
   232   1      34.424999999999997      22.274999999999999                       0
   233   1      36.449999999999996                   20.25                       0
   234   1      38.474999999999994                   20.25      2.0249999999999999
   235   1      36.449999999999996      22.274999999999999      2.0249999999999999
   236   1      38.474999999999994      22.274999999999999                       0
   237   1                       0      24.299999999999997                       0
   238   1      2.0249999999999999      24.299999999999997      2.0249999999999999
   239   1                       0      26.324999999999996      2.0249999999999999
   240   1      2.0249999999999999      26.324999999999996                       0
   241   1      4.0499999999999998      24.299999999999997                       0
   242   1      6.0749999999999993      24.299999999999997      2.0249999999999999
   243   1      4.0499999999999998      26.324999999999996      2.0249999999999999
   244   1      6.0749999999999993      26.324999999999996                       0
   245   1      8.0999999999999996      24.299999999999997                       0
   246   1                  10.125      24.299999999999997      2.0249999999999999
   247   1      8.0999999999999996      26.324999999999996      2.0249999999999999
   248   1                  10.125      26.324999999999996                       0
   249   1      12.149999999999999      24.299999999999997                       0
   250   1      14.174999999999999      24.299999999999997      2.0249999999999999
   251   1      12.149999999999999      26.324999999999996      2.0249999999999999
   252   1      14.174999999999999      26.324999999999996                       0
   253   1      16.199999999999999      24.299999999999997                       0
   254   1      18.224999999999998      24.299999999999997      2.0249999999999999
   255   1      18.224999999999998      26.324999999999996                       0
   256   1                   20.25      24.299999999999997                       0
   257   1      22.274999999999999      24.299999999999997      2.0249999999999999
   258   1                   20.25      26.324999999999996      2.0249999999999999
   259   1      22.274999999999999      26.324999999999996                       0
   260   1      24.299999999999997      24.299999999999997                       0
   261   1      26.324999999999996      24.299999999999997      2.0249999999999999
   262   1      24.299999999999997      26.324999999999996      2.0249999999999999
   263   1      26.324999999999996      26.324999999999996                       0
   264   1      28.349999999999998      24.299999999999997                       0
   265   1      30.374999999999996      24.299999999999997      2.0249999999999999
   266   1      28.349999999999998      26.324999999999996      2.0249999999999999
   267   1      30.374999999999996      26.324999999999996                       0
   268   1      32.399999999999999      24.299999999999997                       0
   269   1      34.424999999999997      24.299999999999997      2.0249999999999999
   270   1      32.399999999999999      26.324999999999996      2.0249999999999999
   271   1      34.424999999999997      26.324999999999996                       0
   272   1      36.449999999999996      24.299999999999997                       0
   273   1      38.474999999999994      24.299999999999997      2.0249999999999999
   274   1      36.449999999999996      26.324999999999996      2.0249999999999999
   275   1      38.474999999999994      26.324999999999996                       0
   276   1                       0      28.349999999999998                       0
   277   1      2.0249999999999999      28.349999999999998      2.0249999999999999
   278   1                       0      30.374999999999996      2.0249999999999999
   279   1      2.0249999999999999      30.374999999999996                       0
   280   1      4.0499999999999998      28.349999999999998                       0
   281   1      6.0749999999999993      28.349999999999998      2.0249999999999999
   282   1      4.0499999999999998      30.374999999999996      2.0249999999999999
   283   1      6.0749999999999993      30.374999999999996                       0
   284   1      8.0999999999999996      28.349999999999998                       0
   285   1                  10.125      28.349999999999998      2.0249999999999999
   286   1      8.0999999999999996      30.374999999999996      2.0249999999999999
   287   1                  10.125      30.374999999999996                       0
   288   1      12.149999999999999      28.349999999999998                       0
   289   1      14.174999999999999      28.349999999999998      2.0249999999999999
   290   1      12.149999999999999      30.374999999999996      2.0249999999999999
   291   1      14.174999999999999      30.374999999999996                       0
   292   1      16.199999999999999      28.349999999999998                       0
   293   1      18.224999999999998      28.349999999999998      2.0249999999999999
   294   1      16.199999999999999      30.374999999999996      2.0249999999999999
   295   1      18.224999999999998      30.374999999999996                       0
   296   1                   20.25      28.349999999999998                       0
   297   1      22.274999999999999      28.349999999999998      2.0249999999999999
   298   1                   20.25      30.374999999999996      2.0249999999999999
   299   1      22.274999999999999      30.374999999999996                       0
   300   1      24.299999999999997      28.349999999999998                       0
   301   1      26.324999999999996      28.349999999999998      2.0249999999999999
   302   1      24.299999999999997      30.374999999999996      2.0249999999999999
   303   1      26.324999999999996      30.374999999999996                       0
   304   1      28.349999999999998      28.349999999999998                       0
   305   1      30.374999999999996      28.349999999999998      2.0249999999999999
   306   1      28.349999999999998      30.374999999999996      2.0249999999999999
   307   1      30.374999999999996      30.374999999999996                       0
   308   1      32.399999999999999      28.349999999999998                       0
   309   1      34.424999999999997      28.349999999999998      2.0249999999999999
   310   1      32.399999999999999      30.374999999999996      2.0249999999999999
   311   1      34.424999999999997      30.374999999999996                       0
   312   1      36.449999999999996      28.349999999999998                       0
   313   1      38.474999999999994      28.349999999999998      2.0249999999999999
   314   1      36.449999999999996      30.374999999999996      2.0249999999999999
   315   1      38.474999999999994      30.374999999999996                       0
   316   1                       0      32.399999999999999                       0
   317   1      2.0249999999999999      32.399999999999999      2.0249999999999999
   318   1                       0      34.424999999999997      2.0249999999999999
   319   1      2.0249999999999999      34.424999999999997                       0
   320   1      4.0499999999999998      32.399999999999999                       0
   321   1      6.0749999999999993      32.399999999999999      2.0249999999999999
   322   1      4.0499999999999998      34.424999999999997      2.0249999999999999
   323   1      6.0749999999999993      34.424999999999997                       0
   324   1      8.0999999999999996      32.399999999999999                       0
   325   1                  10.125      32.399999999999999      2.0249999999999999
   326   1      8.0999999999999996      34.424999999999997      2.0249999999999999
   327   1                  10.125      34.424999999999997                       0
   328   1      12.149999999999999      32.399999999999999                       0
   329   1      14.174999999999999      32.399999999999999      2.0249999999999999
   330   1      12.149999999999999      34.424999999999997      2.0249999999999999
   331   1      14.174999999999999      34.424999999999997                       0
   332   1      16.199999999999999      32.399999999999999                       0
   333   1      18.224999999999998      32.399999999999999      2.0249999999999999
   334   1      16.199999999999999      34.424999999999997      2.0249999999999999
   335   1      18.224999999999998      34.424999999999997                       0
   336   1                   20.25      32.399999999999999                       0
   337   1      22.274999999999999      32.399999999999999      2.0249999999999999
   338   1                   20.25      34.424999999999997      2.0249999999999999
   339   1      22.274999999999999      34.424999999999997                       0
   340   1      24.299999999999997      32.399999999999999                       0
   341   1      26.324999999999996      32.399999999999999      2.0249999999999999
   342   1      24.299999999999997      34.424999999999997      2.0249999999999999
   343   1      26.324999999999996      34.424999999999997                       0
   344   1      28.349999999999998      32.399999999999999                       0
   345   1      30.374999999999996      32.399999999999999      2.0249999999999999
   346   1      28.349999999999998      34.424999999999997      2.0249999999999999
   347   1      30.374999999999996      34.424999999999997                       0
   348   1      32.399999999999999      32.399999999999999                       0
   349   1      34.424999999999997      32.399999999999999      2.0249999999999999
   350   1      32.399999999999999      34.424999999999997      2.0249999999999999
   351   1      34.424999999999997      34.424999999999997                       0
   352   1      36.449999999999996      32.399999999999999                       0
   353   1      38.474999999999994      32.399999999999999      2.0249999999999999
   354   1      36.449999999999996      34.424999999999997      2.0249999999999999
   355   1      38.474999999999994      34.424999999999997                       0
   356   1                       0      36.449999999999996                       0
   357   1      2.0249999999999999      36.449999999999996      2.0249999999999999
   358   1                       0      38.474999999999994      2.0249999999999999