lattice/diamond/Si/no_defect/initial/Si.lmp (written by ASE) 

8000 	 atoms 
1  atom types
0.0      54.299999999999997  xlo xhi
0.0      54.299999999999997  ylo yhi
0.0      54.299999999999997  zlo zhi


Atoms 

     1   1                       0                       0                       0
     2   1      1.3574999999999999      1.3574999999999999      1.3574999999999999
     3   1      2.7149999999999999      2.7149999999999999                       0
     4   1      4.0724999999999998      4.0724999999999998      1.3574999999999999
     5   1      2.7149999999999999                       0      2.7149999999999999
     6   1                       0      2.7149999999999999      2.7149999999999999
     7   1      4.0724999999999998      1.3574999999999999      4.0724999999999998
     8   1      1.3574999999999999      4.0724999999999998      4.0724999999999998
     9   1      5.4299999999999997                       0                       0
    10   1      6.7874999999999996      1.3574999999999999      1.3574999999999999
    11   1      8.1449999999999996      2.7149999999999999                       0
    12   1      9.5024999999999995      4.0724999999999998      1.3574999999999999
    13   1      8.1449999999999996                       0      2.7149999999999999
    14   1      5.4299999999999997      2.7149999999999999      2.7149999999999999
    15   1      9.5024999999999995      1.3574999999999999      4.0724999999999998
    16   1      6.7874999999999996      4.0724999999999998      4.0724999999999998
    17   1      10.859999999999999                       0                       0
    18   1      12.217499999999999      1.3574999999999999      1.3574999999999999
    19   1      13.574999999999999      2.7149999999999999                       0
    20   1      14.932499999999999      4.0724999999999998      1.3574999999999999
    21   1      13.574999999999999                       0      2.7149999999999999
    22   1      10.859999999999999      2.7149999999999999      2.7149999999999999
    23   1      14.932499999999999      1.3574999999999999      4.0724999999999998
    24   1      12.217499999999999      4.0724999999999998      4.0724999999999998
    25   1      16.289999999999999                       0                       0
    26   1      17.647500000000001      1.3574999999999999      1.3574999999999999
    27   1      19.004999999999999      2.7149999999999999                       0
    28   1      20.362499999999997      4.0724999999999998      1.3574999999999999
    29   1      19.004999999999999                       0      2.7149999999999999
    30   1      16.289999999999999      2.7149999999999999      2.7149999999999999
    31   1      20.362499999999997      1.3574999999999999      4.0724999999999998
    32   1      17.647500000000001      4.0724999999999998      4.0724999999999998
    33   1      21.719999999999999                       0                       0
    34   1      23.077500000000001      1.3574999999999999      1.3574999999999999
    35   1      24.434999999999999      2.7149999999999999                       0
    36   1      25.792499999999997      4.0724999999999998      1.3574999999999999
    37   1      24.434999999999999                       0      2.7149999999999999
    38   1      21.719999999999999      2.7149999999999999      2.7149999999999999
    39   1      25.792499999999997      1.3574999999999999      4.0724999999999998
    40   1      23.077500000000001      4.0724999999999998      4.0724999999999998
    41   1      27.149999999999999                       0                       0
    42   1                 28.5075      1.3574999999999999      1.3574999999999999
    43   1      29.864999999999998      2.7149999999999999                       0
    44   1      31.222499999999997      4.0724999999999998      1.3574999999999999
    45   1      29.864999999999998                       0      2.7149999999999999
    46   1      27.149999999999999      2.7149999999999999      2.7149999999999999
    47   1      31.222499999999997      1.3574999999999999      4.0724999999999998
    48   1                 28.5075      4.0724999999999998      4.0724999999999998
    49   1      32.579999999999998                       0                       0
    50   1                 33.9375      1.3574999999999999      1.3574999999999999
    51   1      35.295000000000002      2.7149999999999999                       0
    52   1      36.652499999999996      4.0724999999999998      1.3574999999999999
    53   1      35.295000000000002                       0      2.7149999999999999
    54   1      32.579999999999998      2.7149999999999999      2.7149999999999999
    55   1      36.652499999999996      1.3574999999999999      4.0724999999999998
    56   1                 33.9375      4.0724999999999998      4.0724999999999998
    57   1      38.009999999999998                       0                       0
    58   1                 39.3675      1.3574999999999999      1.3574999999999999
    59   1      40.724999999999994      2.7149999999999999                       0
    60   1      42.082499999999996      4.0724999999999998      1.3574999999999999
    61   1      40.724999999999994                       0      2.7149999999999999
    62   1      38.009999999999998      2.7149999999999999      2.7149999999999999
    63   1      42.082499999999996      1.3574999999999999      4.0724999999999998
    64   1                 39.3675      4.0724999999999998      4.0724999999999998
    65   1      43.439999999999998                       0                       0
    66   1      44.797499999999999      1.3574999999999999      1.3574999999999999
    67   1      46.155000000000001      2.7149999999999999                       0
    68   1      47.512499999999996      4.0724999999999998      1.3574999999999999
    69   1      46.155000000000001                       0      2.7149999999999999
    70   1      43.439999999999998      2.7149999999999999      2.7149999999999999
    71   1      47.512499999999996      1.3574999999999999      4.0724999999999998
    72   1      44.797499999999999      4.0724999999999998      4.0724999999999998
    73   1      48.869999999999997                       0                       0
    74   1      50.227499999999999      1.3574999999999999      1.3574999999999999
    75   1      51.584999999999994      2.7149999999999999                       0
    76   1      52.942499999999995      4.0724999999999998      1.3574999999999999
    77   1      51.584999999999994                       0      2.7149999999999999
    78   1      48.869999999999997      2.7149999999999999      2.7149999999999999
    79   1      52.942499999999995      1.3574999999999999      4.0724999999999998
    80   1      50.227499999999999      4.0724999999999998      4.0724999999999998
    81   1                       0      5.4299999999999997                       0
    82   1      1.3574999999999999      6.7874999999999996      1.3574999999999999
    83   1      2.7149999999999999      8.1449999999999996                       0
    84   1      4.0724999999999998      9.5024999999999995      1.3574999999999999
    85   1      2.7149999999999999      5.4299999999999997      2.7149999999999999
    86   1                       0      8.1449999999999996      2.7149999999999999
    87   1      4.0724999999999998      6.7874999999999996      4.0724999999999998
    88   1      1.3574999999999999      9.5024999999999995      4.0724999999999998
    89   1      5.4299999999999997      5.4299999999999997                       0
    90   1      6.7874999999999996      6.7874999999999996      1.3574999999999999
    91   1      8.1449999999999996      8.1449999999999996                       0
    92   1      9.5024999999999995      9.5024999999999995      1.3574999999999999
    93   1      8.1449999999999996      5.4299999999999997      2.7149999999999999
    94   1      5.4299999999999997      8.1449999999999996      2.7149999999999999
    95   1      9.5024999999999995      6.7874999999999996      4.0724999999999998
    96   1      6.7874999999999996      9.5024999999999995      4.0724999999999998
    97   1      10.859999999999999      5.4299999999999997                       0
    98   1      12.217499999999999      6.7874999999999996      1.3574999999999999
    99   1      13.574999999999999      8.1449999999999996                       0
   100   1      14.932499999999999      9.5024999999999995      1.3574999999999999
   101   1      13.574999999999999      5.4299999999999997      2.7149999999999999
   102   1      10.859999999999999      8.1449999999999996      2.7149999999999999
   103   1      14.932499999999999      6.7874999999999996      4.0724999999999998
   104   1      12.217499999999999      9.5024999999999995      4.0724999999999998
   105   1      16.289999999999999      5.4299999999999997                       0
   106   1      17.647500000000001      6.7874999999999996      1.3574999999999999
   107   1      19.004999999999999      8.1449999999999996                       0
   108   1      20.362499999999997      9.5024999999999995      1.3574999999999999
   109   1      19.004999999999999      5.4299999999999997      2.7149999999999999
   110   1      16.289999999999999      8.1449999999999996      2.7149999999999999
   111   1      20.362499999999997      6.7874999999999996      4.0724999999999998
   112   1      17.647500000000001      9.5024999999999995      4.0724999999999998
   113   1      21.719999999999999      5.4299999999999997                       0
   114   1      23.077500000000001      6.7874999999999996      1.3574999999999999
   115   1      24.434999999999999      8.1449999999999996                       0
   116   1      25.792499999999997      9.5024999999999995      1.3574999999999999
   117   1      24.434999999999999      5.4299999999999997      2.7149999999999999
   118   1      21.719999999999999      8.1449999999999996      2.7149999999999999
   119   1      25.792499999999997      6.7874999999999996      4.0724999999999998
   120   1      23.077500000000001      9.5024999999999995      4.0724999999999998
   121   1      27.149999999999999      5.4299999999999997                       0
   122   1                 28.5075      6.7874999999999996      1.3574999999999999
   123   1      29.864999999999998      8.1449999999999996                       0
   124   1      31.222499999999997      9.5024999999999995      1.3574999999999999
   125   1      29.864999999999998      5.4299999999999997      2.7149999999999999
   126   1      27.149999999999999      8.1449999999999996      2.7149999999999999
   127   1      31.222499999999997      6.7874999999999996      4.0724999999999998
   128   1                 28.5075      9.5024999999999995      4.0724999999999998
   129   1      32.579999999999998      5.4299999999999997                       0
   130   1                 33.9375      6.7874999999999996      1.3574999999999999
   131   1      35.295000000000002      8.1449999999999996                       0
   132   1      36.652499999999996      9.5024999999999995      1.3574999999999999
   133   1      35.295000000000002      5.4299999999999997      2.7149999999999999
   134   1      32.579999999999998      8.1449999999999996      2.7149999999999999
   135   1      36.652499999999996      6.7874999999999996      4.0724999999999998
   136   1                 33.9375      9.5024999999999995      4.0724999999999998
   137   1      38.009999999999998      5.4299999999999997                       0
   138   1                 39.3675      6.7874999999999996      1.3574999999999999
   139   1      40.724999999999994      8.1449999999999996                       0
   140   1      42.082499999999996      9.5024999999999995      1.3574999999999999
   141   1      40.724999999999994      5.4299999999999997      2.7149999999999999
   142   1      38.009999999999998      8.1449999999999996      2.7149999999999999
   143   1      42.082499999999996      6.7874999999999996      4.0724999999999998
   144   1                 39.3675      9.5024999999999995      4.0724999999999998
   145   1      43.439999999999998      5.4299999999999997                       0
   146   1      44.797499999999999      6.7874999999999996      1.3574999999999999
   147   1      46.155000000000001      8.1449999999999996                       0
   148   1      47.512499999999996      9.5024999999999995      1.3574999999999999
   149   1      46.155000000000001      5.4299999999999997      2.7149999999999999
   150   1      43.439999999999998      8.1449999999999996      2.7149999999999999
   151   1      47.512499999999996      6.7874999999999996      4.0724999999999998
   152   1      44.797499999999999      9.5024999999999995      4.0724999999999998
   153   1      48.869999999999997      5.4299999999999997                       0
   154   1      50.227499999999999      6.7874999999999996      1.3574999999999999
   155   1      51.584999999999994      8.1449999999999996                       0
   156   1      52.942499999999995      9.5024999999999995      1.3574999999999999
   157   1      51.584999999999994      5.4299999999999997      2.7149999999999999
   158   1      48.869999999999997      8.1449999999999996      2.7149999999999999
   159   1      52.942499999999995      6.7874999999999996      4.0724999999999998
   160   1      50.227499999999999      9.5024999999999995      4.0724999999999998
   161   1                       0      10.859999999999999                       0
   162   1      1.3574999999999999      12.217499999999999      1.3574999999999999
   163   1      2.7149999999999999      13.574999999999999                       0
   164   1      4.0724999999999998      14.932499999999999      1.3574999999999999
   165   1      2.7149999999999999      10.859999999999999      2.7149999999999999
   166   1                       0      13.574999999999999      2.7149999999999999
   167   1      4.0724999999999998      12.217499999999999      4.0724999999999998
   168   1      1.3574999999999999      14.932499999999999      4.0724999999999998
   169   1      5.4299999999999997      10.859999999999999                       0
   170   1      6.7874999999999996      12.217499999999999      1.3574999999999999
   171   1      8.1449999999999996      13.574999999999999                       0
   172   1      9.5024999999999995      14.932499999999999      1.3574999999999999
   173   1      8.1449999999999996      10.859999999999999      2.7149999999999999
   174   1      5.4299999999999997      13.574999999999999      2.7149999999999999
   175   1      9.5024999999999995      12.217499999999999      4.0724999999999998
   176   1      6.7874999999999996      14.932499999999999      4.0724999999999998
   177   1      10.859999999999999      10.859999999999999                       0
   178   1      12.217499999999999      12.217499999999999      1.3574999999999999
   179   1      13.574999999999999      13.574999999999999                       0
   180   1      14.932499999999999      14.932499999999999      1.3574999999999999
   181   1      13.574999999999999      10.859999999999999      2.7149999999999999
   182   1      10.859999999999999      13.574999999999999      2.7149999999999999
   183   1      14.932499999999999      12.217499999999999      4.0724999999999998
   184   1      12.217499999999999      14.932499999999999      4.0724999999999998
   185   1      16.289999999999999      10.859999999999999                       0
   186   1      17.647500000000001      12.217499999999999      1.3574999999999999
   187   1      19.004999999999999      13.574999999999999                       0
   188   1      20.362499999999997      14.932499999999999      1.3574999999999999
   189   1      19.004999999999999      10.859999999999999      2.7149999999999999
   190   1      16.289999999999999      13.574999999999999      2.7149999999999999
   191   1      20.362499999999997      12.217499999999999      4.0724999999999998
   192   1      17.647500000000001      14.932499999999999      4.0724999999999998
   193   1      21.719999999999999      10.859999999999999                       0
   194   1      23.077500000000001      12.217499999999999      1.3574999999999999
   195   1      24.434999999999999      13.574999999999999                       0
   196   1      25.792499999999997      14.932499999999999      1.3574999999999999
   197   1      24.434999999999999      10.859999999999999      2.7149999999999999
   198   1      21.719999999999999      13.574999999999999      2.7149999999999999
   199   1      25.792499999999997      12.217499999999999      4.0724999999999998
   200   1      23.077500000000001      14.932499999999999      4.0724999999999998
   201   1      27.149999999999999      10.859999999999999                       0
   202   1                 28.5075      12.217499999999999      1.3574999999999999
   203   1      29.864999999999998      13.574999999999999                       0
   204   1      31.222499999999997      14.932499999999999      1.3574999999999999
   205   1      29.864999999999998      10.859999999999999      2.7149999999999999
   206   1      27.149999999999999      13.574999999999999      2.7149999999999999
   207   1      31.222499999999997      12.217499999999999      4.0724999999999998
   208   1                 28.5075      14.932499999999999      4.0724999999999998
   209   1      32.579999999999998      10.859999999999999                       0
   210   1                 33.9375      12.217499999999999      1.3574999999999999
   211   1      35.295000000000002      13.574999999999999                       0
   212   1      36.652499999999996      14.932499999999999      1.3574999999999999
   213   1      35.295000000000002      10.859999999999999      2.7149999999999999
   214   1      32.579999999999998      13.574999999999999      2.7149999999999999
   215   1      36.652499999999996      12.217499999999999      4.0724999999999998
   216   1                 33.9375      14.932499999999999      4.0724999999999998
   217   1      38.009999999999998      10.859999999999999                       0
   218   1                 39.3675      12.217499999999999      1.3574999999999999
   219   1      40.724999999999994      13.574999999999999                       0
   220   1      42.082499999999996      14.932499999999999      1.3574999999999999
   221   1      40.724999999999994      10.859999999999999      2.7149999999999999
   222   1      38.009999999999998      13.574999999999999      2.7149999999999999
   223   1      42.082499999999996      12.217499999999999      4.0724999999999998
   224   1                 39.3675      14.932499999999999      4.0724999999999998
   225   1      43.439999999999998      10.859999999999999                       0
   226   1      44.797499999999999      12.217499999999999      1.3574999999999999
   227   1      46.155000000000001      13.574999999999999                       0
   228   1      47.512499999999996      14.932499999999999      1.3574999999999999
   229   1      46.155000000000001      10.859999999999999      2.7149999999999999
   230   1      43.439999999999998      13.574999999999999      2.7149999999999999
   231   1      47.512499999999996      12.217499999999999      4.0724999999999998
   232   1      44.797499999999999      14.932499999999999      4.0724999999999998
   233   1      48.869999999999997      10.859999999999999                       0
   234   1      50.227499999999999      12.217499999999999      1.3574999999999999
   235   1      51.584999999999994      13.574999999999999                       0
   236   1      52.942499999999995      14.932499999999999      1.3574999999999999
   237   1      51.584999999999994      10.859999999999999      2.7149999999999999
   238   1      48.869999999999997      13.574999999999999      2.7149999999999999
   239   1      52.942499999999995      12.217499999999999      4.0724999999999998
   240   1      50.227499999999999      14.932499999999999      4.0724999999999998
   241   1                       0      16.289999999999999                       0
   242   1      1.3574999999999999      17.647500000000001      1.3574999999999999
   243   1      2.7149999999999999      19.004999999999999                       0
   244   1      4.0724999999999998      20.362499999999997      1.3574999999999999
   245   1      2.7149999999999999      16.289999999999999      2.7149999999999999
   246   1                       0      19.004999999999999      2.7149999999999999
   247   1      4.0724999999999998      17.647500000000001      4.0724999999999998
   248   1      1.3574999999999999      20.362499999999997      4.0724999999999998
   249   1      5.4299999999999997      16.289999999999999                       0
   250   1      6.7874999999999996      17.647500000000001      1.3574999999999999
   251   1      8.1449999999999996      19.004999999999999                       0
   252   1      9.5024999999999995      20.362499999999997      1.3574999999999999
   253   1      8.1449999999999996      16.289999999999999      2.7149999999999999
   254   1      5.4299999999999997      19.004999999999999      2.7149999999999999
   255   1      9.5024999999999995      17.647500000000001      4.0724999999999998
   256   1      6.7874999999999996      20.362499999999997      4.0724999999999998
   257   1      10.859999999999999      16.289999999999999                       0
   258   1      12.217499999999999      17.647500000000001      1.3574999999999999
   259   1      13.574999999999999      19.004999999999999                       0
   260   1      14.932499999999999      20.362499999999997      1.3574999999999999
   261   1      13.574999999999999      16.289999999999999      2.7149999999999999
   262   1      10.859999999999999      19.004999999999999      2.7149999999999999
   263   1      14.932499999999999      17.647500000000001      4.0724999999999998
   264   1      12.217499999999999      20.362499999999997      4.0724999999999998
   265   1      16.289999999999999      16.289999999999999                       0
   266   1      17.647500000000001      17.647500000000001      1.3574999999999999
   267   1      19.004999999999999      19.004999999999999                       0
   268   1      20.362499999999997      20.362499999999997      1.3574999999999999
   269   1      19.004999999999999      16.289999999999999      2.7149999999999999
   270   1      16.289999999999999      19.004999999999999      2.7149999999999999
   271   1      20.362499999999997      17.647500000000001      4.0724999999999998
   272   1      17.647500000000001      20.362499999999997      4.0724999999999998
   273   1      21.719999999999999      16.289999999999999                       0
   274   1      23.077500000000001      17.647500000000001      1.3574999999999999
   275   1      24.434999999999999      19.004999999999999                       0
   276   1      25.792499999999997      20.362499999999997      1.3574999999999999
   277   1      24.434999999999999      16.289999999999999      2.7149999999999999
   278   1      21.719999999999999      19.004999999999999      2.7149999999999999
   279   1      25.792499999999997      17.647500000000001      4.0724999999999998
   280   1      23.077500000000001      20.362499999999997      4.0724999999999998
   281   1      27.149999999999999      16.289999999999999                       0
   282   1                 28.5075      17.647500000000001      1.3574999999999999
   283   1      29.864999999999998      19.004999999999999                       0
   284   1      31.222499999999997      20.362499999999997      1.3574999999999999
   285   1      29.864999999999998      16.289999999999999      2.7149999999999999
   286   1      27.149999999999999      19.004999999999999      2.7149999999999999
   287   1      31.222499999999997      17.647500000000001      4.0724999999999998
   288   1                 28.5075      20.362499999999997      4.0724999999999998
   289   1      32.579999999999998      16.289999999999999                       0
   290   1                 33.9375      17.647500000000001      1.3574999999999999
   291   1      35.295000000000002      19.004999999999999                       0
   292   1      36.652499999999996      20.362499999999997      1.3574999999999999
   293   1      35.295000000000002      16.289999999999999      2.7149999999999999
   294   1      32.579999999999998      19.004999999999999      2.7149999999999999
   295   1      36.652499999999996      17.647500000000001      4.0724999999999998
   296   1                 33.9375      20.362499999999997      4.0724999999999998
   297   1      38.009999999999998      16.289999999999999                       0
   298   1                 39.3675      17.647500000000001      1.3574999999999999
   299   1      40.724999999999994      19.004999999999999                       0
   300   1      42.082499999999996      20.362499999999997      1.3574999999999999
   301   1      40.724999999999994      16.289999999999999      2.7149999999999999
   302   1      38.009999999999998      19.004999999999999      2.7149999999999999
   303   1      42.082499999999996      17.647500000000001      4.0724999999999998
   304   1                 39.3675      20.362499999999997      4.0724999999999998
   305   1      43.439999999999998      16.289999999999999                       0
   306   1      44.797499999999999      17.647500000000001      1.3574999999999999
   307   1      46.155000000000001      19.004999999999999                       0
   308   1      47.512499999999996      20.362499999999997      1.3574999999999999
   309   1      46.155000000000001      16.289999999999999      2.7149999999999999
   310   1      43.439999999999998      19.004999999999999      2.7149999999999999
   311   1      47.512499999999996      17.647500000000001      4.0724999999999998
   312   1      44.797499999999999      20.362499999999997      4.0724999999999998
   313   1      48.869999999999997      16.289999999999999                       0
   314   1      50.227499999999999      17.647500000000001      1.3574999999999999
   315   1      51.584999999999994      19.004999999999999                       0
   316   1      52.942499999999995      20.362499999999997      1.3574999999999999
   317   1      51.584999999999994      16.289999999999999      2.7149999999999999
   318   1      48.869999999999997      19.004999999999999      2.7149999999999999
   319   1      52.942499999999995      17.647500000000001      4.0724999999999998
   320   1      50.227499999999999      20.362499999999997      4.0724999999999998
   321   1                       0      21.719999999999999                       0
   322   1      1.3574999999999999      23.077500000000001      1.3574999999999999
   323   1      2.7149999999999999      24.434999999999999                       0
   324   1      4.0724999999999998      25.792499999999997      1.3574999999999999
   325   1      2.7149999999999999      21.719999999999999      2.7149999999999999
   326   1                       0      24.434999999999999      2.7149999999999999
   327   1      4.0724999999999998      23.077500000000001      4.0724999999999998
   328   1      1.3574999999999999      25.792499999999997      4.0724999999999998
   329   1      5.4299999999999997      21.719999999999999                       0
   330   1      6.7874999999999996      23.077500000000001      1.3574999999999999
   331   1      8.1449999999999996      24.434999999999999                       0
   332   1      9.5024999999999995      25.792499999999997      1.3574999999999999
   333   1      8.1449999999999996      21.719999999999999      2.7149999999999999
   334   1      5.4299999999999997      24.434999999999999      2.7149999999999999
   335   1      9.5024999999999995      23.077500000000001      4.0724999999999998
   336   1      6.7874999999999996      25.792499999999997      4.0724999999999998
   337   1      10.859999999999999      21.719999999999999                       0
   338   1      12.217499999999999      23.077500000000001      1.3574999999999999
   339   1      13.574999999999999      24.434999999999999                       0
   340   1      14.932499999999999      25.792499999999997      1.3574999999999999
   341   1      13.574999999999999      21.719999999999999      2.7149999999999999
   342   1      10.859999999999999      24.434999999999999      2.7149999999999999
   343   1      14.932499999999999      23.077500000000001      4.0724999999999998
   344   1      12.217499999999999      25.792499999999997      4.0724999999999998
   345   1      16.289999999999999      21.719999999999999                       0
   346   1      17.647500000000001      23.077500000000001      1.3574999999999999
   347   1      19.004999999999999      24.434999999999999                       0
   348   1      20.362499999999997      25.792499999999997      1.3574999999999999
   349   1      19.004999999999999      21.719999999999999      2.7149999999999999
   350   1      16.289999999999999      24.434999999999999      2.7149999999999999
   351   1      20.362499999999997      23.077500000000001      4.0724999999999998
   352   1      17.647500000000001      25.792499999999997      4.0724999999999998
   353   1      21.719999999999999      21.719999999999999                       0
   354   1      23.077500000000001      23.077500000000001      1.3574999999999999
   355   1      24.434999999999999      24.434999999999999                       0
   356   1      25.792499999999997      25.792499999999997      1.3574999999999999
   357   1      24.434999999999999      21.719999999999999      2.7149999999999999
   358   1      21.719999999999999      24.434999999999999      2.7149999999999999