lattice/hcp/Mg/defect/vacancy/Mg_vacancy.lmp (written by ASE) 

3960 	 atoms 
1  atom types
0.0      32.100000000000001  xlo xhi
0.0      55.598830922960957  ylo yhi
0.0                 52.4193  zlo zhi


Atoms 

     1   1                       0                       0                       0
     2   1                   1.605      2.7799415461480477                       0
     3   1                   1.605     0.92664718204934948                2.620965
     4   1                       0      3.7065887281973975                2.620965
     5   1                    3.21                       0                       0
     6   1      4.8149999999999995      2.7799415461480477                       0
     7   1      4.8149999999999995     0.92664718204934948                2.620965
     8   1                    3.21      3.7065887281973975                2.620965
     9   1      6.4199999999999999                       0                       0
    10   1      8.0250000000000004      2.7799415461480477                       0
    11   1      8.0250000000000004     0.92664718204934948                2.620965
    12   1      6.4199999999999999      3.7065887281973975                2.620965
    13   1       9.629999999999999                       0                       0
    14   1      11.234999999999999      2.7799415461480477                       0
    15   1      11.234999999999999     0.92664718204934948                2.620965
    16   1       9.629999999999999      3.7065887281973975                2.620965
    17   1                   12.84                       0                       0
    18   1                  14.445      2.7799415461480477                       0
    19   1                  14.445     0.92664718204934948                2.620965
    20   1                   12.84      3.7065887281973975                2.620965
    21   1      16.050000000000001                       0                       0
    22   1      17.655000000000001      2.7799415461480477                       0
    23   1      17.655000000000001     0.92664718204934948                2.620965
    24   1      16.050000000000001      3.7065887281973975                2.620965
    25   1      19.259999999999998                       0                       0
    26   1      20.864999999999998      2.7799415461480477                       0
    27   1      20.864999999999998     0.92664718204934948                2.620965
    28   1      19.259999999999998      3.7065887281973975                2.620965
    29   1      22.469999999999999                       0                       0
    30   1      24.074999999999999      2.7799415461480477                       0
    31   1      24.074999999999999     0.92664718204934948                2.620965
    32   1      22.469999999999999      3.7065887281973975                2.620965
    33   1                   25.68                       0                       0
    34   1                  27.285      2.7799415461480477                       0
    35   1                  27.285     0.92664718204934948                2.620965
    36   1                   25.68      3.7065887281973975                2.620965
    37   1      28.890000000000001                       0                       0
    38   1      30.495000000000001      2.7799415461480477                       0
    39   1      30.495000000000001     0.92664718204934948                2.620965
    40   1      28.890000000000001      3.7065887281973975                2.620965
    41   1                       0      5.5598830922960953                       0
    42   1                   1.605      8.3398246384441421                       0
    43   1                   1.605      6.4865302743454452                2.620965
    44   1                       0      9.2664718204934928                2.620965
    45   1                    3.21      5.5598830922960953                       0
    46   1      4.8149999999999995      8.3398246384441421                       0
    47   1      4.8149999999999995      6.4865302743454452                2.620965
    48   1                    3.21      9.2664718204934928                2.620965
    49   1      6.4199999999999999      5.5598830922960953                       0
    50   1      8.0250000000000004      8.3398246384441421                       0
    51   1      8.0250000000000004      6.4865302743454452                2.620965
    52   1      6.4199999999999999      9.2664718204934928                2.620965
    53   1       9.629999999999999      5.5598830922960953                       0
    54   1      11.234999999999999      8.3398246384441421                       0
    55   1      11.234999999999999      6.4865302743454452                2.620965
    56   1       9.629999999999999      9.2664718204934928                2.620965
    57   1                   12.84      5.5598830922960953                       0
    58   1                  14.445      8.3398246384441421                       0
    59   1                  14.445      6.4865302743454452                2.620965
    60   1                   12.84      9.2664718204934928                2.620965
    61   1      16.050000000000001      5.5598830922960953                       0
    62   1      17.655000000000001      8.3398246384441421                       0
    63   1      17.655000000000001      6.4865302743454452                2.620965
    64   1      16.050000000000001      9.2664718204934928                2.620965
    65   1      19.259999999999998      5.5598830922960953                       0
    66   1      20.864999999999998      8.3398246384441421                       0
    67   1      20.864999999999998      6.4865302743454452                2.620965
    68   1      19.259999999999998      9.2664718204934928                2.620965
    69   1      22.469999999999999      5.5598830922960953                       0
    70   1      24.074999999999999      8.3398246384441421                       0
    71   1      24.074999999999999      6.4865302743454452                2.620965
    72   1      22.469999999999999      9.2664718204934928                2.620965
    73   1                   25.68      5.5598830922960953                       0
    74   1                  27.285      8.3398246384441421                       0
    75   1                  27.285      6.4865302743454452                2.620965
    76   1                   25.68      9.2664718204934928                2.620965
    77   1      28.890000000000001      5.5598830922960953                       0
    78   1      30.495000000000001      8.3398246384441421                       0
    79   1      30.495000000000001      6.4865302743454452                2.620965
    80   1      28.890000000000001      9.2664718204934928                2.620965
    81   1                       0      11.119766184592191                       0
    82   1                   1.605      13.899707730740239                       0
    83   1                   1.605       12.04641336664154                2.620965
    84   1                       0      14.826354912789588                2.620965
    85   1                    3.21      11.119766184592191                       0
    86   1      4.8149999999999995      13.899707730740239                       0
    87   1      4.8149999999999995       12.04641336664154                2.620965
    88   1                    3.21      14.826354912789588                2.620965
    89   1      8.0250000000000004      13.899707730740239                       0
    90   1      8.0250000000000004       12.04641336664154                2.620965
    91   1      6.4199999999999999      14.826354912789588                2.620965
    92   1       9.629999999999999      11.119766184592191                       0
    93   1      11.234999999999999      13.899707730740239                       0
    94   1      11.234999999999999       12.04641336664154                2.620965
    95   1       9.629999999999999      14.826354912789588                2.620965
    96   1                   12.84      11.119766184592191                       0
    97   1                  14.445      13.899707730740239                       0
    98   1                  14.445       12.04641336664154                2.620965
    99   1                   12.84      14.826354912789588                2.620965
   100   1      16.050000000000001      11.119766184592191                       0
   101   1      17.655000000000001      13.899707730740239                       0
   102   1      17.655000000000001       12.04641336664154                2.620965
   103   1      16.050000000000001      14.826354912789588                2.620965
   104   1      19.259999999999998      11.119766184592191                       0
   105   1      20.864999999999998      13.899707730740239                       0
   106   1      20.864999999999998       12.04641336664154                2.620965
   107   1      19.259999999999998      14.826354912789588                2.620965
   108   1      22.469999999999999      11.119766184592191                       0
   109   1      24.074999999999999      13.899707730740239                       0
   110   1      24.074999999999999       12.04641336664154                2.620965
   111   1      22.469999999999999      14.826354912789588                2.620965
   112   1                   25.68      11.119766184592191                       0
   113   1                  27.285      13.899707730740239                       0
   114   1                  27.285       12.04641336664154                2.620965
   115   1                   25.68      14.826354912789588                2.620965
   116   1      28.890000000000001      11.119766184592191                       0
   117   1      30.495000000000001      13.899707730740239                       0
   118   1      30.495000000000001       12.04641336664154                2.620965
   119   1      28.890000000000001      14.826354912789588                2.620965
   120   1                       0      16.679649276888284                       0
   121   1                   1.605      19.459590823036333                       0
   122   1                   1.605      17.606296458937635                2.620965
   123   1                       0       20.38623800508568                2.620965
   124   1                    3.21      16.679649276888284                       0
   125   1      4.8149999999999995      19.459590823036333                       0
   126   1      4.8149999999999995      17.606296458937635                2.620965
   127   1                    3.21       20.38623800508568                2.620965
   128   1      6.4199999999999999      16.679649276888284                       0
   129   1      8.0250000000000004      19.459590823036333                       0
   130   1      8.0250000000000004      17.606296458937635                2.620965
   131   1      6.4199999999999999       20.38623800508568                2.620965
   132   1       9.629999999999999      16.679649276888284                       0
   133   1      11.234999999999999      19.459590823036333                       0
   134   1      11.234999999999999      17.606296458937635                2.620965
   135   1       9.629999999999999       20.38623800508568                2.620965
   136   1                   12.84      16.679649276888284                       0
   137   1                  14.445      19.459590823036333                       0
   138   1                  14.445      17.606296458937635                2.620965
   139   1                   12.84       20.38623800508568                2.620965
   140   1      16.050000000000001      16.679649276888284                       0
   141   1      17.655000000000001      19.459590823036333                       0
   142   1      17.655000000000001      17.606296458937635                2.620965
   143   1      16.050000000000001       20.38623800508568                2.620965
   144   1      19.259999999999998      16.679649276888284                       0
   145   1      20.864999999999998      19.459590823036333                       0
   146   1      20.864999999999998      17.606296458937635                2.620965
   147   1      19.259999999999998       20.38623800508568                2.620965
   148   1      22.469999999999999      16.679649276888284                       0
   149   1      24.074999999999999      19.459590823036333                       0
   150   1      24.074999999999999      17.606296458937635                2.620965
   151   1      22.469999999999999       20.38623800508568                2.620965
   152   1                   25.68      16.679649276888284                       0
   153   1                  27.285      19.459590823036333                       0
   154   1                  27.285      17.606296458937635                2.620965
   155   1                   25.68       20.38623800508568                2.620965
   156   1      28.890000000000001      16.679649276888284                       0
   157   1      30.495000000000001      19.459590823036333                       0
   158   1      30.495000000000001      17.606296458937635                2.620965
   159   1      28.890000000000001       20.38623800508568                2.620965
   160   1                       0      22.239532369184381                       0
   161   1                   1.605       25.01947391533243                       0
   162   1                   1.605      23.166179551233732                2.620965
   163   1                       0      25.946121097381777                2.620965
   164   1                    3.21      22.239532369184381                       0
   165   1      4.8149999999999995       25.01947391533243                       0
   166   1      4.8149999999999995      23.166179551233732                2.620965
   167   1                    3.21      25.946121097381777                2.620965
   168   1      6.4199999999999999      22.239532369184381                       0
   169   1      8.0250000000000004       25.01947391533243                       0
   170   1      8.0250000000000004      23.166179551233732                2.620965
   171   1      6.4199999999999999      25.946121097381777                2.620965
   172   1       9.629999999999999      22.239532369184381                       0
   173   1      11.234999999999999       25.01947391533243                       0
   174   1      11.234999999999999      23.166179551233732                2.620965
   175   1       9.629999999999999      25.946121097381777                2.620965
   176   1                   12.84      22.239532369184381                       0
   177   1                  14.445       25.01947391533243                       0
   178   1                  14.445      23.166179551233732                2.620965
   179   1                   12.84      25.946121097381777                2.620965
   180   1      16.050000000000001      22.239532369184381                       0
   181   1      17.655000000000001       25.01947391533243                       0
   182   1      17.655000000000001      23.166179551233732                2.620965
   183   1      16.050000000000001      25.946121097381777                2.620965
   184   1      19.259999999999998      22.239532369184381                       0
   185   1      20.864999999999998       25.01947391533243                       0
   186   1      20.864999999999998      23.166179551233732                2.620965
   187   1      19.259999999999998      25.946121097381777                2.620965
   188   1      22.469999999999999      22.239532369184381                       0
   189   1      24.074999999999999       25.01947391533243                       0
   190   1      24.074999999999999      23.166179551233732                2.620965
   191   1      22.469999999999999      25.946121097381777                2.620965
   192   1                   25.68      22.239532369184381                       0
   193   1                  27.285       25.01947391533243                       0
   194   1                  27.285      23.166179551233732                2.620965
   195   1                   25.68      25.946121097381777                2.620965
   196   1      28.890000000000001      22.239532369184381                       0
   197   1      30.495000000000001       25.01947391533243                       0
   198   1      30.495000000000001      23.166179551233732                2.620965
   199   1      28.890000000000001      25.946121097381777                2.620965
   200   1                       0      27.799415461480478                       0
   201   1                   1.605      30.579357007628527                       0
   202   1                   1.605      28.726062643529829                2.620965
   203   1                       0      31.506004189677874                2.620965
   204   1                    3.21      27.799415461480478                       0
   205   1      4.8149999999999995      30.579357007628527                       0
   206   1      4.8149999999999995      28.726062643529829                2.620965
   207   1                    3.21      31.506004189677874                2.620965
   208   1      6.4199999999999999      27.799415461480478                       0
   209   1      8.0250000000000004      30.579357007628527                       0
   210   1      8.0250000000000004      28.726062643529829                2.620965
   211   1      6.4199999999999999      31.506004189677874                2.620965
   212   1       9.629999999999999      27.799415461480478                       0
   213   1      11.234999999999999      30.579357007628527                       0
   214   1      11.234999999999999      28.726062643529829                2.620965
   215   1       9.629999999999999      31.506004189677874                2.620965
   216   1                   12.84      27.799415461480478                       0
   217   1                  14.445      30.579357007628527                       0
   218   1                  14.445      28.726062643529829                2.620965
   219   1                   12.84      31.506004189677874                2.620965
   220   1      16.050000000000001      27.799415461480478                       0
   221   1      17.655000000000001      30.579357007628527                       0
   222   1      17.655000000000001      28.726062643529829                2.620965
   223   1      16.050000000000001      31.506004189677874                2.620965
   224   1      19.259999999999998      27.799415461480478                       0
   225   1      20.864999999999998      30.579357007628527                       0
   226   1      20.864999999999998      28.726062643529829                2.620965
   227   1      19.259999999999998      31.506004189677874                2.620965
   228   1      22.469999999999999      27.799415461480478                       0
   229   1      24.074999999999999      30.579357007628527                       0
   230   1      24.074999999999999      28.726062643529829                2.620965
   231   1      22.469999999999999      31.506004189677874                2.620965
   232   1                   25.68      27.799415461480478                       0
   233   1                  27.285      30.579357007628527                       0
   234   1                  27.285      28.726062643529829                2.620965
   235   1                   25.68      31.506004189677874                2.620965
   236   1      28.890000000000001      27.799415461480478                       0
   237   1      30.495000000000001      30.579357007628527                       0
   238   1      30.495000000000001      28.726062643529829                2.620965
   239   1      28.890000000000001      31.506004189677874                2.620965
   240   1                       0      33.359298553776568                       0
   241   1                   1.605      36.139240099924614                       0
   242   1                   1.605      34.285945735825919                2.620965
   243   1                       0      37.065887281973964                2.620965
   244   1                    3.21      33.359298553776568                       0
   245   1      4.8149999999999995      36.139240099924614                       0
   246   1      4.8149999999999995      34.285945735825919                2.620965
   247   1                    3.21      37.065887281973964                2.620965
   248   1      6.4199999999999999      33.359298553776568                       0
   249   1      8.0250000000000004      36.139240099924614                       0
   250   1      8.0250000000000004      34.285945735825919                2.620965
   251   1      6.4199999999999999      37.065887281973964                2.620965
   252   1       9.629999999999999      33.359298553776568                       0
   253   1      11.234999999999999      36.139240099924614                       0
   254   1      11.234999999999999      34.285945735825919                2.620965
   255   1       9.629999999999999      37.065887281973964                2.620965
   256   1                   12.84      33.359298553776568                       0
   257   1                  14.445      36.139240099924614                       0
   258   1                  14.445      34.285945735825919                2.620965
   259   1                   12.84      37.065887281973964                2.620965
   260   1      16.050000000000001      33.359298553776568                       0
   261   1      17.655000000000001      36.139240099924614                       0
   262   1      17.655000000000001      34.285945735825919                2.620965
   263   1      16.050000000000001      37.065887281973964                2.620965
   264   1      19.259999999999998      33.359298553776568                       0
   265   1      20.864999999999998      36.139240099924614                       0
   266   1      20.864999999999998      34.285945735825919                2.620965
   267   1      19.259999999999998      37.065887281973964                2.620965
   268   1      22.469999999999999      33.359298553776568                       0
   269   1      24.074999999999999      36.139240099924614                       0
   270   1      24.074999999999999      34.285945735825919                2.620965
   271   1      22.469999999999999      37.065887281973964                2.620965
   272   1                   25.68      33.359298553776568                       0
   273   1                  27.285      36.139240099924614                       0
   274   1                  27.285      34.285945735825919                2.620965
   275   1                   25.68      37.065887281973964                2.620965
   276   1      28.890000000000001      33.359298553776568                       0
   277   1      30.495000000000001      36.139240099924614                       0
   278   1      30.495000000000001      34.285945735825919                2.620965
   279   1      28.890000000000001      37.065887281973964                2.620965
   280   1                       0      38.919181646072666                       0
   281   1                   1.605      41.699123192220711                       0
   282   1                   1.605      39.845828828122016                2.620965
   283   1                       0      42.625770374270061                2.620965
   284   1                    3.21      38.919181646072666                       0
   285   1      4.8149999999999995      41.699123192220711                       0
   286   1      4.8149999999999995      39.845828828122016                2.620965
   287   1                    3.21      42.625770374270061                2.620965
   288   1      6.4199999999999999      38.919181646072666                       0
   289   1      8.0250000000000004      41.699123192220711                       0
   290   1      8.0250000000000004      39.845828828122016                2.620965
   291   1      6.4199999999999999      42.625770374270061                2.620965
   292   1       9.629999999999999      38.919181646072666                       0
   293   1      11.234999999999999      41.699123192220711                       0
   294   1      11.234999999999999      39.845828828122016                2.620965
   295   1       9.629999999999999      42.625770374270061                2.620965
   296   1                   12.84      38.919181646072666                       0
   297   1                  14.445      41.699123192220711                       0
   298   1                  14.445      39.845828828122016                2.620965
   299   1                   12.84      42.625770374270061                2.620965
   300   1      16.050000000000001      38.919181646072666                       0
   301   1      17.655000000000001      41.699123192220711                       0
   302   1      17.655000000000001      39.845828828122016                2.620965
   303   1      16.050000000000001      42.625770374270061                2.620965
   304   1      19.259999999999998      38.919181646072666                       0
   305   1      20.864999999999998      41.699123192220711                       0
   306   1      20.864999999999998      39.845828828122016                2.620965
   307   1      19.259999999999998      42.625770374270061                2.620965
   308   1      22.469999999999999      38.919181646072666                       0
   309   1      24.074999999999999      41.699123192220711                       0
   310   1      24.074999999999999      39.845828828122016                2.620965
   311   1      22.469999999999999      42.625770374270061                2.620965
   312   1                   25.68      38.919181646072666                       0
   313   1                  27.285      41.699123192220711                       0
   314   1                  27.285      39.845828828122016                2.620965
   315   1                   25.68      42.625770374270061                2.620965
   316   1      28.890000000000001      38.919181646072666                       0
   317   1      30.495000000000001      41.699123192220711                       0
   318   1      30.495000000000001      39.845828828122016                2.620965
   319   1      28.890000000000001      42.625770374270061                2.620965
   320   1                       0      44.479064738368763                       0
   321   1                   1.605      47.259006284516808                       0
   322   1                   1.605      45.405711920418113                2.620965
   323   1                       0      48.185653466566158                2.620965
   324   1                    3.21      44.479064738368763                       0
   325   1      4.8149999999999995      47.259006284516808                       0
   326   1      4.8149999999999995      45.405711920418113                2.620965
   327   1                    3.21      48.185653466566158                2.620965
   328   1      6.4199999999999999      44.479064738368763                       0
   329   1      8.0250000000000004      47.259006284516808                       0
   330   1      8.0250000000000004      45.405711920418113                2.620965
   331   1      6.4199999999999999      48.185653466566158                2.620965
   332   1       9.629999999999999      44.479064738368763                       0
   333   1      11.234999999999999      47.259006284516808                       0
   334   1      11.234999999999999      45.405711920418113                2.620965
   335   1       9.629999999999999      48.185653466566158                2.620965
   336   1                   12.84      44.479064738368763                       0
   337   1                  14.445      47.259006284516808                       0
   338   1                  14.445      45.405711920418113                2.620965
   339   1                   12.84      48.185653466566158                2.620965
   340   1      16.050000000000001      44.479064738368763                       0
   341   1      17.655000000000001      47.259006284516808                       0
   342   1      17.655000000000001      45.405711920418113                2.620965
   343   1      16.050000000000001      48.185653466566158                2.620965
   344   1      19.259999999999998      44.479064738368763                       0
   345   1      20.864999999999998      47.259006284516808                       0
   346   1      20.864999999999998      45.405711920418113                2.620965
   347   1      19.259999999999998      48.185653466566158                2.620965
   348   1      22.469999999999999      44.479064738368763                       0
   349   1      24.074999999999999      47.259006284516808                       0
   350   1      24.074999999999999      45.405711920418113                2.620965
   351   1      22.469999999999999      48.185653466566158                2.620965
   352   1                   25.68      44.479064738368763                       0
   353   1                  27.285      47.259006284516808                       0
   354   1                  27.285      45.405711920418113                2.620965
   355   1                   25.68      48.185653466566158                2.620965
   356   1      28.890000000000001      44.479064738368763                       0
   357   1      30.495000000000001      47.259006284516808                       0
   358   1      30.495000000000001      45.405711920418113                2.620965